Title: **.subckt char_schem_nmos_vds g1v8 d1v8 b
Date: Tue Oct  5 22:12:14  2021
Plotname: DC transfer characteristic
Flags: real
No. Variables: 50
No. Points: 181
Variables:
	0	v-sweep	voltage
	1		voltage
	2	@include[current]	capacitance
	3	i(@m.xm1.msky130_fd_pr__nfet_01v8[ib])	current dims=0
	4	i(@m.xm1.msky130_fd_pr__nfet_01v8[id])	current
	5	i(@m.xm1.msky130_fd_pr__nfet_01v8[ig])	current dims=0
	6	i(@m.xm1.msky130_fd_pr__nfet_01v8[is])	current dims=0
	7	i(@m.xm2.msky130_fd_pr__nfet_01v8_lvt[ib])	current dims=0
	8	i(@m.xm2.msky130_fd_pr__nfet_01v8_lvt[id])	current
	9	i(@m.xm2.msky130_fd_pr__nfet_01v8_lvt[ig])	current dims=0
	10	i(@m.xm2.msky130_fd_pr__nfet_01v8_lvt[is])	current dims=0
	11	i(@m.xm3.msky130_fd_pr__nfet_01v8[ib])	current dims=0
	12	i(@m.xm3.msky130_fd_pr__nfet_01v8[id])	current
	13	i(@m.xm3.msky130_fd_pr__nfet_01v8[ig])	current dims=0
	14	i(@m.xm3.msky130_fd_pr__nfet_01v8[is])	current dims=0
	15	i(@m.xm4.msky130_fd_pr__nfet_01v8_lvt[ib])	current dims=0
	16	i(@m.xm4.msky130_fd_pr__nfet_01v8_lvt[id])	current
	17	i(@m.xm4.msky130_fd_pr__nfet_01v8_lvt[ig])	current dims=0
	18	i(@m.xm4.msky130_fd_pr__nfet_01v8_lvt[is])	current dims=0
	19	b	voltage
	20	d1v8	voltage
	21	i(e1)	current
	22	g1v8	voltage
	23	m.xm1.msky130_fd_pr__nfet_01v8#body	voltage
	24	m.xm1.msky130_fd_pr__nfet_01v8#dbody	voltage
	25	m.xm1.msky130_fd_pr__nfet_01v8#sbody	voltage
	26	m.xm2.msky130_fd_pr__nfet_01v8_lvt#body	voltage
	27	m.xm2.msky130_fd_pr__nfet_01v8_lvt#dbody	voltage
	28	m.xm2.msky130_fd_pr__nfet_01v8_lvt#sbody	voltage
	29	m.xm3.msky130_fd_pr__nfet_01v8#body	voltage
	30	m.xm3.msky130_fd_pr__nfet_01v8#dbody	voltage
	31	m.xm3.msky130_fd_pr__nfet_01v8#sbody	voltage
	32	m.xm4.msky130_fd_pr__nfet_01v8_lvt#body	voltage
	33	m.xm4.msky130_fd_pr__nfet_01v8_lvt#dbody	voltage
	34	m.xm4.msky130_fd_pr__nfet_01v8_lvt#sbody	voltage
	35	net1	voltage
	36	net2	voltage
	37	net3	voltage
	38	net4	voltage
	39	s	voltage
	40	sky130_fd_pr__esd_nfet_05v0_nvt.pm3	voltage
	41	i(vb)	current
	42	i(vd)	current
	43	vds	voltage
	44	i(vg)	current
	45	i(vn_long)	current
	46	i(vn_lvt_long)	current
	47	i(vn_lvt_short)	current
	48	i(vn_short)	current
	49	i(vs)	current
Values:
 0	0.000000000000000e+00
	0.000000000000000e+00
	0.000000000000000e+00
	0.000000000000000e+00
	0.000000000000000e+00
	0.000000000000000e+00
	0.000000000000000e+00
	0.000000000000000e+00
	0.000000000000000e+00
	0.000000000000000e+00
	0.000000000000000e+00
	0.000000000000000e+00
	0.000000000000000e+00
	0.000000000000000e+00
	0.000000000000000e+00
	0.000000000000000e+00
	0.000000000000000e+00
	0.000000000000000e+00
	0.000000000000000e+00
	0.000000000000000e+00
	0.000000000000000e+00
	0.000000000000000e+00
	1.800000000000000e+00
	-8.468754138401551e-45
	-1.270313182037041e-44
	-1.270313059483424e-44
	-1.878515605065875e-44
	-2.817773303595526e-44
	-2.817773511602100e-44
	9.027849717924451e-32
	1.354177457321081e-31
	1.354177458056254e-31
	5.223950946214621e-33
	7.835926439529104e-33
	7.835926399114760e-33
	0.000000000000000e+00
	0.000000000000000e+00
	0.000000000000000e+00
	0.000000000000000e+00
	0.000000000000000e+00
	0.000000000000000e+00
	7.640195850416560e-33
	-3.820097924546802e-33
	0.000000000000000e+00
	0.000000000000000e+00
	-3.387501900616744e-46
	-7.514062004664300e-46
	2.089580386665281e-34
	3.611139885881364e-33
	-3.820097925869760e-33

 1	1.000000000000000e-02
	0.000000000000000e+00
	0.000000000000000e+00
	0.000000000000000e+00
	1.433600101888715e-05
	0.000000000000000e+00
	0.000000000000000e+00
	0.000000000000000e+00
	1.578111230537775e-05
	0.000000000000000e+00
	0.000000000000000e+00
	0.000000000000000e+00
	1.590540288573705e-04
	0.000000000000000e+00
	0.000000000000000e+00
	0.000000000000000e+00
	1.674879311566081e-04
	0.000000000000000e+00
	0.000000000000000e+00
	0.000000000000000e+00
	1.000000000000000e-02
	0.000000000000000e+00
	1.800000000000000e+00
	1.569915655589909e-13
	3.924654426117547e-13
	7.850925394732651e-14
	1.570612981671253e-13
	3.926383993521217e-13
	7.854548556275354e-14
	1.569955812320116e-13
	3.923394913725468e-13
	7.864724743930753e-14
	1.570718396982724e-13
	3.925094788696820e-13
	7.869337986448119e-14
	1.000000000000000e-02
	1.000000000000000e-02
	1.000000000000000e-02
	1.000000000000000e-02
	0.000000000000000e+00
	0.000000000000000e+00
	5.024936927603995e-14
	-3.566590733886099e-04
	1.000000000000000e-02
	0.000000000000000e+00
	1.433600103145638e-05
	1.578111231792523e-05
	1.674879311692190e-04
	1.590540288700093e-04
	3.566590733384114e-04

 2	2.000000000000000e-02
	0.000000000000000e+00
	0.000000000000000e+00
	0.000000000000000e+00
	2.852147311124354e-05
	0.000000000000000e+00
	0.000000000000000e+00
	0.000000000000000e+00
	3.142436609253485e-05
	0.000000000000000e+00
	0.000000000000000e+00
	0.000000000000000e+00
	3.145789164261035e-04
	0.000000000000000e+00
	0.000000000000000e+00
	0.000000000000000e+00
	3.323177170707698e-04
	0.000000000000000e+00
	0.000000000000000e+00
	0.000000000000000e+00
	2.000000000000000e-02
	0.000000000000000e+00
	1.800000000000000e+00
	3.057142862901881e-13
	7.642589144011961e-13
	1.528839439950773e-13
	3.058358091572335e-13
	7.645599409834293e-13
	1.529474478847302e-13
	3.057281111426844e-13
	7.640246650044317e-13
	1.531596484691773e-13
	3.058761755977072e-13
	7.643263772156630e-13
	1.532505037247798e-13
	2.000000000000000e-02
	2.000000000000000e-02
	2.000000000000000e-02
	2.000000000000000e-02
	0.000000000000000e+00
	0.000000000000000e+00
	9.785131648221851e-14
	-7.068424727989520e-04
	2.000000000000000e-02
	0.000000000000000e+00
	2.852147313570086e-05
	3.142436611691668e-05
	3.323177170952984e-04
	3.145789164510360e-04
	7.068424727013149e-04

 3	3.000000000000000e-02
	0.000000000000000e+00
	0.000000000000000e+00
	0.000000000000000e+00
	4.255680024900587e-05
	0.000000000000000e+00
	0.000000000000000e+00
	0.000000000000000e+00
	4.693037507081755e-05
	0.000000000000000e+00
	0.000000000000000e+00
	0.000000000000000e+00
	4.666392289525907e-04
	0.000000000000000e+00
	0.000000000000000e+00
	0.000000000000000e+00
	4.945215292235362e-04
	0.000000000000000e+00
	0.000000000000000e+00
	0.000000000000000e+00
	3.000000000000000e-02
	0.000000000000000e+00
	1.800000000000000e+00
	4.483054988464186e-13
	1.120723756634196e-12
	2.241927388316278e-13
	4.484655031038735e-13
	1.121119549249412e-12
	2.242768726108445e-13
	4.483324682772006e-13
	1.120392655594360e-12
	2.246047033335329e-13
	4.485532586514376e-13
	1.120799653482653e-12
	2.247415275453604e-13
	3.000000000000000e-02
	3.000000000000000e-02
	3.000000000000000e-02
	3.000000000000000e-02
	0.000000000000000e+00
	0.000000000000000e+00
	1.434901637303929e-13
	-1.050647933640292e-03
	3.000000000000000e-02
	0.000000000000000e+00
	4.255680028486530e-05
	4.693037510672404e-05
	4.945215292595506e-04
	4.666392289891519e-04
	1.050647933496561e-03

 4	4.000000000000000e-02
	0.000000000000000e+00
	0.000000000000000e+00
	0.000000000000000e+00
	5.644236491352114e-05
	0.000000000000000e+00
	0.000000000000000e+00
	0.000000000000000e+00
	6.229974727046979e-05
	0.000000000000000e+00
	0.000000000000000e+00
	0.000000000000000e+00
	6.152973241960539e-04
	0.000000000000000e+00
	0.000000000000000e+00
	0.000000000000000e+00
	6.541302677149563e-04
	0.000000000000000e+00
	0.000000000000000e+00
	0.000000000000000e+00
	4.000000000000000e-02
	0.000000000000000e+00
	1.800000000000000e+00
	5.863500791963684e-13
	1.465822158867480e-12
	2.932280768018787e-13
	5.865386937053761e-13
	1.466288007403471e-12
	2.933279171630578e-13
	5.863919484931149e-13
	1.465401643109417e-12
	2.937741188456850e-13
	5.866906772096045e-13
	1.465896416271606e-12
	2.939602747875630e-13
	4.000000000000000e-02
	4.000000000000000e-02
	4.000000000000000e-02
	4.000000000000000e-02
	0.000000000000000e+00
	0.000000000000000e+00
	1.876734002464761e-13
	-1.388169704282793e-03
	4.000000000000000e-02
	0.000000000000000e+00
	5.644236496027411e-05
	6.229974731764010e-05
	6.541302677618432e-04
	6.152973242430360e-04
	1.388169704095564e-03

 5	5.000000000000000e-02
	0.000000000000000e+00
	0.000000000000000e+00
	0.000000000000000e+00
	7.017854808896774e-05
	0.000000000000000e+00
	0.000000000000000e+00
	0.000000000000000e+00
	7.753308497813871e-05
	0.000000000000000e+00
	0.000000000000000e+00
	0.000000000000000e+00
	7.606132776505547e-04
	0.000000000000000e+00
	0.000000000000000e+00
	0.000000000000000e+00
	8.111734674632656e-04
	0.000000000000000e+00
	0.000000000000000e+00
	0.000000000000000e+00
	5.000000000000000e-02
	0.000000000000000e+00
	1.800000000000000e+00
	7.210232430009785e-13
	1.802492159889617e-12
	3.605775660954400e-13
	7.212331472156359e-13
	1.803009730072878e-12
	3.606894652357012e-13
	7.210807720390233e-13
	1.801987120537905e-12
	3.612550618557809e-13
	7.214661826661032e-13
	1.802558962011694e-12
	3.614956491433002e-13
	5.000000000000000e-02
	5.000000000000000e-02
	5.000000000000000e-02
	5.000000000000000e-02
	0.000000000000000e+00
	0.000000000000000e+00
	2.307773812068200e-13
	-1.719498378412343e-03
	5.000000000000000e-02
	0.000000000000000e+00
	7.017854814650448e-05
	7.753308503621881e-05
	8.111734675211313e-04
	7.606132777084884e-04
	1.719498378181444e-03

 6	6.000000000000000e-02
	0.000000000000000e+00
	0.000000000000000e+00
	0.000000000000000e+00
	8.376572925479632e-05
	0.000000000000000e+00
	0.000000000000000e+00
	0.000000000000000e+00
	9.263098466567758e-05
	0.000000000000000e+00
	0.000000000000000e+00
	0.000000000000000e+00
	9.026447768269855e-04
	0.000000000000000e+00
	0.000000000000000e+00
	0.000000000000000e+00
	9.656791838016243e-04
	0.000000000000000e+00
	0.000000000000000e+00
	0.000000000000000e+00
	6.000000000000000e-02
	0.000000000000000e+00
	1.800000000000000e+00
	8.531964349018279e-13
	2.132912370941971e-12
	4.266769293908151e-13
	8.534222006944107e-13
	2.133468058883455e-12
	4.267981859205586e-13
	8.532697735977783e-13
	2.132326119076471e-12
	4.274830041746938e-13
	8.537536206835759e-13
	2.132969572328904e-12
	4.277846000408743e-13
	6.000000000000000e-02
	6.000000000000000e-02
	6.000000000000000e-02
	6.000000000000000e-02
	0.000000000000000e+00
	0.000000000000000e+00
	2.730812174263607e-13
	-2.044720674823530e-03
	6.000000000000000e-02
	0.000000000000000e+00
	8.376572932355941e-05
	9.263098473422104e-05
	9.656791838699164e-04
	9.026447768958334e-04
	2.044720674549560e-03

 7	7.000000000000001e-02
	0.000000000000000e+00
	0.000000000000000e+00
	0.000000000000000e+00
	9.720428637711186e-05
	0.000000000000000e+00
	0.000000000000000e+00
	0.000000000000000e+00
	1.075940369117487e-04
	0.000000000000000e+00
	0.000000000000000e+00
	0.000000000000000e+00
	1.041446976116139e-03
	0.000000000000000e+00
	0.000000000000000e+00
	0.000000000000000e+00
	1.117673853408701e-03
	0.000000000000000e+00
	0.000000000000000e+00
	0.000000000000000e+00
	7.000000000000001e-02
	0.000000000000000e+00
	1.800000000000000e+00
	9.835158475009745e-13
	2.458698273168305e-12
	4.918492633453123e-13
	9.837534508552762e-13
	2.459281984578331e-12
	4.919778781307693e-13
	9.836047867420858e-13
	2.458033169382628e-12
	4.927809146661505e-13
	9.842015006327609e-13
	2.458746901945691e-12
	4.931514072342886e-13
	7.000000000000001e-02
	7.000000000000001e-02
	7.000000000000001e-02
	7.000000000000001e-02
	0.000000000000000e+00
	0.000000000000000e+00
	3.147919075793911e-13
	-2.363919153128613e-03
	7.000000000000001e-02
	0.000000000000000e+00
	9.720428645554335e-05
	1.075940369910100e-04
	1.117673853487045e-03
	1.041446976195015e-03
	2.363919152814136e-03

 8	8.000000000000000e-02
	0.000000000000000e+00
	0.000000000000000e+00
	0.000000000000000e+00
	1.104945958988994e-04
	0.000000000000000e+00
	0.000000000000000e+00
	0.000000000000000e+00
	1.224228263156729e-04
	0.000000000000000e+00
	0.000000000000000e+00
	0.000000000000000e+00
	1.177072302818209e-03
	0.000000000000000e+00
	0.000000000000000e+00
	0.000000000000000e+00
	1.267182125649497e-03
	0.000000000000000e+00
	0.000000000000000e+00
	0.000000000000000e+00
	8.000000000000000e-02
	0.000000000000000e+00
	1.800000000000000e+00
	1.112460644713442e-12
	2.781047775995989e-12
	5.563341502712784e-13
	1.112707103444695e-12
	2.781652020464394e-12
	5.564686452902805e-13
	1.112564777116738e-12
	2.780305634685531e-12
	5.573883256562948e-13
	1.113291273348329e-12
	2.781091631465210e-12
	5.578368195230009e-13
	8.000000000000000e-02
	8.000000000000000e-02
	8.000000000000000e-02
	8.000000000000000e-02
	0.000000000000000e+00
	0.000000000000000e+00
	3.560629760573067e-13
	-2.677171851038551e-03
	8.000000000000000e-02
	0.000000000000000e+00
	1.104945959875536e-04
	1.224228264051774e-04
	1.267182125738842e-03
	1.177072302906979e-03
	2.677171850682678e-03

 9	9.000000000000000e-02
	0.000000000000000e+00
	0.000000000000000e+00
	0.000000000000000e+00
	1.236370327290087e-04
	0.000000000000000e+00
	0.000000000000000e+00
	0.000000000000000e+00
	1.371179314029351e-04
	0.000000000000000e+00
	0.000000000000000e+00
	0.000000000000000e+00
	1.309570202533566e-03
	0.000000000000000e+00
	0.000000000000000e+00
	0.000000000000000e+00
	1.414226658365145e-03
	0.000000000000000e+00
	0.000000000000000e+00
	0.000000000000000e+00
	9.000000000000000e-02
	0.000000000000000e+00
	1.800000000000000e+00
	1.240386135511011e-12
	3.100849151495478e-12
	6.203092450079820e-13
	1.240639240486368e-12
	3.101468370521880e-12
	6.204485289559331e-13
	1.240504956262868e-12
	3.100031495553733e-12
	6.214828896072953e-13
	1.241380560964820e-12
	3.100894493380049e-12
	6.220196694783310e-13
	9.000000000000000e-02
	9.000000000000000e-02
	9.000000000000000e-02
	9.000000000000000e-02
	0.000000000000000e+00
	0.000000000000000e+00
	3.970082947643654e-13
	-2.984551825429449e-03
	9.000000000000000e-02
	0.000000000000000e+00
	1.236370328290270e-04
	1.371179315028392e-04
	1.414226658464024e-03
	1.309570202633559e-03
	2.984551825031024e-03

 10	9.999999999999999e-02
	0.000000000000000e+00
	0.000000000000000e+00
	0.000000000000000e+00
	1.366319702297761e-04
	0.000000000000000e+00
	0.000000000000000e+00
	0.000000000000000e+00
	1.516799245216862e-04
	0.000000000000000e+00
	0.000000000000000e+00
	0.000000000000000e+00
	1.438986809198496e-03
	0.000000000000000e+00
	0.000000000000000e+00
	0.000000000000000e+00
	1.558827870906103e-03
	0.000000000000000e+00
	0.000000000000000e+00
	0.000000000000000e+00
	9.999999999999999e-02
	0.000000000000000e+00
	1.800000000000000e+00
	1.367555788085310e-12
	3.418761069788040e-12
	6.839062820031499e-13
	1.367813903813772e-12
	3.419391138234350e-12
	6.840495505836354e-13
	1.367688756379088e-12
	3.417869287069898e-12
	6.851963661886157e-13
	1.368735228111362e-12
	3.418816393237144e-12
	6.858329088090917e-13
	9.999999999999999e-02
	9.999999999999999e-02
	9.999999999999999e-02
	9.999999999999999e-02
	0.000000000000000e+00
	0.000000000000000e+00
	4.377123334679548e-13
	-3.286126575294368e-03
	9.999999999999999e-02
	0.000000000000000e+00
	1.366319703390850e-04
	1.516799246314982e-04
	1.558827871016355e-03
	1.438986809307430e-03
	3.286126574856399e-03

 11	1.100000000000000e-01
	0.000000000000000e+00
	0.000000000000000e+00
	0.000000000000000e+00
	1.494797802031780e-04
	0.000000000000000e+00
	0.000000000000000e+00
	0.000000000000000e+00
	1.661093717295400e-04
	0.000000000000000e+00
	0.000000000000000e+00
	0.000000000000000e+00
	1.565364521581345e-03
	0.000000000000000e+00
	0.000000000000000e+00
	0.000000000000000e+00
	1.701003645723057e-03
	0.000000000000000e+00
	0.000000000000000e+00
	0.000000000000000e+00
	1.100000000000000e-01
	0.000000000000000e+00
	1.800000000000000e+00
	1.494164968963567e-12
	3.735271946835122e-12
	7.472229448708262e-13
	1.494426885652403e-12
	3.735909803042802e-12
	7.473696068193742e-13
	1.494311543860784e-12
	3.734307383031540e-12
	7.486264786495046e-13
	1.495553179220966e-12
	3.735347836357742e-12
	7.493755067361848e-13
	1.100000000000000e-01
	1.100000000000000e-01
	1.100000000000000e-01
	1.100000000000000e-01
	0.000000000000000e+00
	0.000000000000000e+00
	4.782377617047282e-13
	-3.581957319714668e-03
	1.100000000000000e-01
	0.000000000000000e+00
	1.494797803225367e-04
	1.661093718485773e-04
	1.701003645842469e-03
	1.565364521701085e-03
	3.581957319237429e-03

 12	1.200000000000000e-01
	0.000000000000000e+00
	0.000000000000000e+00
	0.000000000000000e+00
	1.621808328753818e-04
	0.000000000000000e+00
	0.000000000000000e+00
	0.000000000000000e+00
	1.804068326698869e-04
	0.000000000000000e+00
	0.000000000000000e+00
	0.000000000000000e+00
	1.688741464060776e-03
	0.000000000000000e+00
	0.000000000000000e+00
	0.000000000000000e+00
	1.840768968091862e-03
	0.000000000000000e+00
	0.000000000000000e+00
	0.000000000000000e+00
	1.200000000000000e-01
	0.000000000000000e+00
	1.800000000000000e+00
	1.620358546015743e-12
	4.050743951956183e-12
	8.103316678949257e-13
	1.620623369811058e-12
	4.051387323322324e-12
	8.104812900947435e-13
	1.620518205974476e-12
	4.049707963089683e-12
	8.118457066503507e-13
	1.621982021744941e-12
	4.050853007843132e-12
	8.127212812616506e-13
	1.200000000000000e-01
	1.200000000000000e-01
	1.200000000000000e-01
	1.200000000000000e-01
	0.000000000000000e+00
	0.000000000000000e+00
	5.186310867391157e-13
	-3.872098098218757e-03
	1.200000000000000e-01
	0.000000000000000e+00
	1.621808330050101e-04
	1.804068327997399e-04
	1.840768968222051e-03
	1.688741464191956e-03
	3.872098097698190e-03

 13	1.300000000000000e-01
	0.000000000000000e+00
	0.000000000000000e+00
	0.000000000000000e+00
	1.747354968795529e-04
	0.000000000000000e+00
	0.000000000000000e+00
	0.000000000000000e+00
	1.945728604368765e-04
	0.000000000000000e+00
	0.000000000000000e+00
	0.000000000000000e+00
	1.809150805162383e-03
	0.000000000000000e+00
	0.000000000000000e+00
	0.000000000000000e+00
	1.978135491544353e-03
	0.000000000000000e+00
	0.000000000000000e+00
	0.000000000000000e+00
	1.300000000000000e-01
	0.000000000000000e+00
	1.800000000000000e+00
	1.746243941418340e-12
	4.365445640238225e-12
	8.732861625111236e-13
	1.746511012975554e-12
	4.366092839614688e-12
	8.734384292736741e-13
	1.746416193610623e-12
	4.364339620207256e-12
	8.749078069996749e-13
	1.748132182603422e-12
	4.365602472167863e-12
	8.759254569859854e-13
	1.300000000000000e-01
	1.300000000000000e-01
	1.300000000000000e-01
	1.300000000000000e-01
	0.000000000000000e+00
	0.000000000000000e+00
	5.589268352000750e-13
	-4.156594654582513e-03
	1.300000000000000e-01
	0.000000000000000e+00
	1.747354970191850e-04
	1.945728605772246e-04
	1.978135491683020e-03
	1.809150805303084e-03
	4.156594654023427e-03

 14	1.400000000000000e-01
	0.000000000000000e+00
	0.000000000000000e+00
	0.000000000000000e+00
	1.871441392367649e-04
	0.000000000000000e+00
	0.000000000000000e+00
	0.000000000000000e+00
	2.086080014281454e-04
	0.000000000000000e+00
	0.000000000000000e+00
	0.000000000000000e+00
	1.926619903073012e-03
	0.000000000000000e+00
	0.000000000000000e+00
	0.000000000000000e+00
	2.113111014327959e-03
	0.000000000000000e+00
	0.000000000000000e+00
	0.000000000000000e+00
	1.400000000000000e-01
	0.000000000000000e+00
	1.800000000000000e+00
	1.871900810673468e-12
	4.679576150083440e-12
	9.361262568163677e-13
	1.872169644746701e-12
	4.680225924721478e-12
	9.362809396712825e-13
	1.872085194097791e-12
	4.678401543422114e-12
	9.378526492593426e-13
	1.874086655514422e-12
	4.679797434146839e-12
	9.390295382811602e-13
	1.400000000000000e-01
	1.400000000000000e-01
	1.400000000000000e-01
	1.400000000000000e-01
	0.000000000000000e+00
	0.000000000000000e+00
	5.991506548586457e-13
	-4.435483058663259e-03
	1.400000000000000e-01
	0.000000000000000e+00
	1.871441393852535e-04
	2.086080015777370e-04
	2.113111014478086e-03
	1.926619903222182e-03
	4.435483058066124e-03

 15	1.500000000000000e-01
	0.000000000000000e+00
	0.000000000000000e+00
	0.000000000000000e+00
	1.994071253348407e-04
	0.000000000000000e+00
	0.000000000000000e+00
	0.000000000000000e+00
	2.225127951842777e-04
	0.000000000000000e+00
	0.000000000000000e+00
	0.000000000000000e+00
	2.041169244094079e-03
	0.000000000000000e+00
	0.000000000000000e+00
	0.000000000000000e+00
	2.245698849801471e-03
	0.000000000000000e+00
	0.000000000000000e+00
	0.000000000000000e+00
	1.500000000000000e-01
	0.000000000000000e+00
	1.800000000000000e+00
	1.997388219783234e-12
	4.993283146145192e-12
	9.988814841560557e-13
	1.997658460409501e-12
	4.993934565625177e-12
	9.990384194383211e-13
	1.997584304753739e-12
	4.992041452634157e-12
	1.000709801523799e-12
	1.999908253032849e-12
	4.993587743250353e-12
	1.002064934719007e-12
	1.500000000000000e-01
	1.500000000000000e-01
	1.500000000000000e-01
	1.500000000000000e-01
	0.000000000000000e+00
	0.000000000000000e+00
	6.393216157413937e-13
	-4.708788015054033e-03
	1.500000000000000e-01
	0.000000000000000e+00
	1.994071254936003e-04
	2.225127953439099e-04
	2.245698849962174e-03
	2.041169244254348e-03
	4.708788014414895e-03

 16	1.600000000000000e-01
	0.000000000000000e+00
	0.000000000000000e+00
	0.000000000000000e+00
	2.115248189049357e-04
	0.000000000000000e+00
	0.000000000000000e+00
	0.000000000000000e+00
	2.362877742138909e-04
	0.000000000000000e+00
	0.000000000000000e+00
	0.000000000000000e+00
	2.152811139438698e-03
	0.000000000000000e+00
	0.000000000000000e+00
	0.000000000000000e+00
	2.375897071265059e-03
	0.000000000000000e+00
	0.000000000000000e+00
	0.000000000000000e+00
	1.600000000000000e-01
	0.000000000000000e+00
	1.800000000000000e+00
	2.122749967258635e-12
	5.306676124350244e-12
	1.061573744128458e-12
	2.123021354512635e-12
	5.307328497435772e-12
	1.061732816350755e-12
	2.122957352900453e-12
	5.305368899765857e-12
	1.063501189204390e-12
	2.125645011822295e-12
	5.307085259735323e-12
	1.065055662998056e-12
	1.600000000000000e-01
	1.600000000000000e-01
	1.600000000000000e-01
	1.600000000000000e-01
	0.000000000000000e+00
	0.000000000000000e+00
	6.794539176432302e-13
	-4.976520804500950e-03
	1.600000000000000e-01
	0.000000000000000e+00
	2.115248190746044e-04
	2.362877743831149e-04
	2.375897071434707e-03
	2.152811139608524e-03
	4.976520803822796e-03

 17	1.700000000000000e-01
	0.000000000000000e+00
	0.000000000000000e+00
	0.000000000000000e+00
	2.234975819956616e-04
	0.000000000000000e+00
	0.000000000000000e+00
	0.000000000000000e+00
	2.499334638031280e-04
	0.000000000000000e+00
	0.000000000000000e+00
	0.000000000000000e+00
	2.261548150882575e-03
	0.000000000000000e+00
	0.000000000000000e+00
	0.000000000000000e+00
	2.503697609654737e-03
	0.000000000000000e+00
	0.000000000000000e+00
	0.000000000000000e+00
	1.700000000000000e-01
	0.000000000000000e+00
	1.800000000000000e+00
	2.248018530488038e-12
	5.619836277819955e-12
	1.124219275768933e-12
	2.248290875821904e-12
	5.620489090772169e-12
	1.124380405286305e-12
	2.248236841237762e-12
	5.618465133560689e-12
	1.126243066238390e-12
	2.251334232552854e-12
	5.620373783125360e-12
	1.128020366045212e-12
	1.700000000000000e-01
	1.700000000000000e-01
	1.700000000000000e-01
	1.700000000000000e-01
	0.000000000000000e+00
	0.000000000000000e+00
	7.195581576103293e-13
	-5.238676807054254e-03
	1.700000000000000e-01
	0.000000000000000e+00
	2.234975821755469e-04
	2.499334639818329e-04
	2.503697609833822e-03
	2.261548151063053e-03
	5.238676806336311e-03

 18	1.800000000000000e-01
	0.000000000000000e+00
	0.000000000000000e+00
	0.000000000000000e+00
	2.353257749445158e-04
	0.000000000000000e+00
	0.000000000000000e+00
	0.000000000000000e+00
	2.634503818082284e-04
	0.000000000000000e+00
	0.000000000000000e+00
	0.000000000000000e+00
	2.367371231379947e-03
	0.000000000000000e+00
	0.000000000000000e+00
	0.000000000000000e+00
	2.629085181396535e-03
	0.000000000000000e+00
	0.000000000000000e+00
	0.000000000000000e+00
	1.800000000000000e-01
	0.000000000000000e+00
	1.800000000000000e+00
	2.373217992042359e-12
	5.932823812633243e-12
	1.186830120702495e-12
	2.373491159995311e-12
	5.933476683447477e-12
	1.186993254561793e-12
	2.373446873740363e-12
	5.931390415946644e-12
	1.188947476292148e-12
	2.377005511762820e-12
	5.933516433560688e-12
	1.190973827939870e-12
	1.800000000000000e-01
	1.800000000000000e-01
	1.800000000000000e-01
	1.800000000000000e-01
	0.000000000000000e+00
	0.000000000000000e+00
	7.596422712904865e-13
	-5.495232570289055e-03
	1.800000000000000e-01
	0.000000000000000e+00
	2.353257751339655e-04
	2.634503819969325e-04
	2.629085181586888e-03
	2.367371231571269e-03
	5.495232569529433e-03

 19	1.900000000000000e-01
	0.000000000000000e+00
	0.000000000000000e+00
	0.000000000000000e+00
	2.470097563463726e-04
	0.000000000000000e+00
	0.000000000000000e+00
	0.000000000000000e+00
	2.768390384297146e-04
	0.000000000000000e+00
	0.000000000000000e+00
	0.000000000000000e+00
	2.470257600217575e-03
	0.000000000000000e+00
	0.000000000000000e+00
	0.000000000000000e+00
	2.752036024507370e-03
	0.000000000000000e+00
	0.000000000000000e+00
	0.000000000000000e+00
	1.900000000000000e-01
	0.000000000000000e+00
	1.800000000000000e+00
	2.498366209584178e-12
	6.245683372599349e-12
	1.249415208098332e-12
	2.498640104218646e-12
	6.246336017055422e-12
	1.249580313250725e-12
	2.498605325481199e-12
	6.244189448459143e-12
	1.251623335678206e-12
	2.502683030788808e-12
	6.246561146506452e-12
	1.253928117192164e-12
	1.900000000000000e-01
	1.900000000000000e-01
	1.900000000000000e-01
	1.900000000000000e-01
	0.000000000000000e+00
	0.000000000000000e+00
	7.997122326182381e-13
	-5.746142420300693e-03
	1.900000000000000e-01
	0.000000000000000e+00
	2.470097565456797e-04
	2.768390386291841e-04
	2.752036024707749e-03
	2.470257600418080e-03
	5.746142419501247e-03

 20	2.000000000000000e-01
	0.000000000000000e+00
	0.000000000000000e+00
	0.000000000000000e+00
	2.585498830187564e-04
	0.000000000000000e+00
	0.000000000000000e+00
	0.000000000000000e+00
	2.900999359665901e-04
	0.000000000000000e+00
	0.000000000000000e+00
	0.000000000000000e+00
	2.570168433837187e-03
	0.000000000000000e+00
	0.000000000000000e+00
	0.000000000000000e+00
	2.872516425339503e-03
	0.000000000000000e+00
	0.000000000000000e+00
	0.000000000000000e+00
	2.000000000000000e-01
	0.000000000000000e+00
	1.800000000000000e+00
	2.623476424895023e-12
	6.558448061826059e-12
	1.311981159183426e-12
	2.623750979740029e-12
	6.559100268303927e-12
	1.312148217450327e-12
	2.623725451732494e-12
	6.556895397035786e-12
	1.314277235738280e-12
	2.628387298040476e-12
	6.559544770492047e-12
	1.316893456496935e-12
	2.000000000000000e-01
	2.000000000000000e-01
	2.000000000000000e-01
	2.000000000000000e-01
	0.000000000000000e+00
	0.000000000000000e+00
	8.397725744606847e-13
	-5.991334679003479e-03
	2.000000000000000e-01
	0.000000000000000e+00
	2.585498832274880e-04
	2.900999361772350e-04
	2.872516425549421e-03
	2.570168434049336e-03
	5.991334678162265e-03

 21	2.100000000000000e-01
	0.000000000000000e+00
	0.000000000000000e+00
	0.000000000000000e+00
	2.699465099635897e-04
	0.000000000000000e+00
	0.000000000000000e+00
	0.000000000000000e+00
	3.032335685487786e-04
	0.000000000000000e+00
	0.000000000000000e+00
	0.000000000000000e+00
	2.667046555392463e-03
	0.000000000000000e+00
	0.000000000000000e+00
	0.000000000000000e+00
	2.990481028637158e-03
	0.000000000000000e+00
	0.000000000000000e+00
	0.000000000000000e+00
	2.100000000000000e-01
	0.000000000000000e+00
	1.800000000000000e+00
	2.748558456998377e-12
	6.871142427527239e-12
	1.374532883804016e-12
	2.748833627595594e-12
	6.871794038326345e-12
	1.374701888144139e-12
	2.748817081230407e-12
	6.869532877243501e-12
	1.376914037306978e-12
	2.754136489128062e-12
	6.872496130504739e-12
	1.379878891210632e-12
	2.100000000000000e-01
	2.100000000000000e-01
	2.100000000000000e-01
	2.100000000000000e-01
	0.000000000000000e+00
	0.000000000000000e+00
	8.798267766243919e-13
	-6.230707663421597e-03
	2.100000000000000e-01
	0.000000000000000e+00
	2.699465101843046e-04
	3.032335687684906e-04
	2.990481028856351e-03
	2.667046555612451e-03
	6.230707662542244e-03

 22	2.200000000000001e-01
	0.000000000000000e+00
	0.000000000000000e+00
	0.000000000000000e+00
	2.811999903250898e-04
	0.000000000000000e+00
	0.000000000000000e+00
	0.000000000000000e+00
	3.162404218458760e-04
	0.000000000000000e+00
	0.000000000000000e+00
	0.000000000000000e+00
	2.760814459139782e-03
	0.000000000000000e+00
	0.000000000000000e+00
	0.000000000000000e+00
	3.105870943381123e-03
	0.000000000000000e+00
	0.000000000000000e+00
	0.000000000000000e+00
	2.200000000000001e-01
	0.000000000000000e+00
	1.800000000000000e+00
	2.873619586882006e-12
	7.183784671828637e-12
	1.437074022786718e-12
	2.873895345263379e-12
	7.184435569312983e-12
	1.437244974528686e-12
	2.873887501068468e-12
	7.182120168312913e-12
	1.439537311304489e-12
	2.879947489803277e-12
	7.185438324850246e-12
	1.442892809043180e-12
	2.200000000000001e-01
	2.200000000000001e-01
	2.200000000000001e-01
	2.200000000000001e-01
	0.000000000000000e+00
	0.000000000000000e+00
	9.198775555456936e-13
	-6.464125815610622e-03
	2.200000000000001e-01
	0.000000000000000e+00
	2.811999905540929e-04
	3.162404220757864e-04
	3.105870943611144e-03
	2.760814459369598e-03
	6.464125814692163e-03

 23	2.300000000000001e-01
	0.000000000000000e+00
	0.000000000000000e+00
	0.000000000000000e+00
	2.923106753434227e-04
	0.000000000000000e+00
	0.000000000000000e+00
	0.000000000000000e+00
	3.291209727500635e-04
	0.000000000000000e+00
	0.000000000000000e+00
	0.000000000000000e+00
	2.851373210256398e-03
	0.000000000000000e+00
	0.000000000000000e+00
	0.000000000000000e+00
	3.218611691148738e-03
	0.000000000000000e+00
	0.000000000000000e+00
	0.000000000000000e+00
	2.300000000000001e-01
	0.000000000000000e+00
	1.800000000000000e+00
	2.998665213535464e-12
	7.496388291861660e-12
	1.499607275957243e-12
	2.998941544134576e-12
	7.497038388185755e-12
	1.499780182748805e-12
	2.998942112940397e-12
	7.494670854812409e-12
	1.502149665826151e-12
	3.005836715596925e-12
	7.498390452090801e-12
	1.505943347950382e-12
	2.300000000000001e-01
	2.300000000000001e-01
	2.300000000000001e-01
	2.300000000000001e-01
	0.000000000000000e+00
	0.000000000000000e+00
	9.599270809608077e-13
	-6.691416550459017e-03
	2.300000000000001e-01
	0.000000000000000e+00
	2.923106755821081e-04
	3.291209729914257e-04
	3.218611691388595e-03
	2.851373210496888e-03
	6.691416549498969e-03

 24	2.400000000000001e-01
	0.000000000000000e+00
	0.000000000000000e+00
	0.000000000000000e+00