Title: ** sch_path:
Date: Sun Mar 20 21:16:07  2022
Plotname: DC transfer characteristic
Flags: real
No. Variables: 21
No. Points: 501
Variables:
	0	v-sweep	voltage
	1	b	voltage
	2	d5v0	voltage
	3	i(e1)	current
	4	g5v0	voltage
	5	m.xm1.msky130_fd_pr__nfet_g5v0d10v5#body	voltage
	6	m.xm1.msky130_fd_pr__nfet_g5v0d10v5#dbody	voltage
	7	m.xm1.msky130_fd_pr__nfet_g5v0d10v5#sbody	voltage
	8	m.xm2.msky130_fd_pr__nfet_g5v0d10v5#body	voltage
	9	m.xm2.msky130_fd_pr__nfet_g5v0d10v5#dbody	voltage
	10	m.xm2.msky130_fd_pr__nfet_g5v0d10v5#sbody	voltage
	11	net1	voltage
	12	net2	voltage
	13	s	voltage
	14	i(vb)	current
	15	i(vd)	current
	16	vds	voltage
	17	i(vg)	current
	18	i(vn_long)	current
	19	i(vn_short)	current
	20	i(vs)	current
Values:
 0	0.000000000000000e+00
	0.000000000000000e+00
	0.000000000000000e+00
	0.000000000000000e+00
	5.000000000000000e+00
	-7.561591576791472e-30
	-1.554607114839032e-29
	-7.138703581984097e-30
	-2.228661913374073e-31
	-3.342992870061896e-31
	-3.342992870060324e-31
	0.000000000000000e+00
	0.000000000000000e+00
	0.000000000000000e+00
	0.000000000000000e+00
	5.030197365967361e-19
	0.000000000000000e+00
	0.000000000000000e+00
	-8.914647653945170e-33
	-5.030197365967272e-19
	-5.030197365961127e-19

 1	1.000000000000000e-02
	0.000000000000000e+00
	1.000000000000000e-02
	0.000000000000000e+00
	5.000000000000000e+00
	1.455431656587429e-13
	3.638048849562506e-13
	7.282441262372186e-14
	1.455419209620411e-13
	3.638484177303595e-13
	7.277734441768422e-14
	1.000000000000000e-02
	1.000000000000000e-02
	0.000000000000000e+00
	0.000000000000000e+00
	-3.415675662110651e-04
	1.000000000000000e-02
	0.000000000000000e+00
	3.682486107403626e-05
	3.047427051370288e-04
	3.415675661879391e-04

 2	2.000000000000000e-02
	0.000000000000000e+00
	2.000000000000000e-02
	0.000000000000000e+00
	5.000000000000000e+00
	2.848939557486510e-13
	7.121287765172430e-13
	1.425522899118332e-13
	2.848896798198815e-13
	7.122114491929834e-13
	1.424575873097306e-13
	2.000000000000000e-02
	2.000000000000000e-02
	0.000000000000000e+00
	0.000000000000000e+00
	-6.810153998735302e-04
	2.000000000000000e-02
	0.000000000000000e+00
	7.353166882184681e-05
	6.074837310516834e-04
	6.810153998281725e-04

 3	3.000000000000000e-02
	0.000000000000000e+00
	3.000000000000000e-02
	0.000000000000000e+00
	5.000000000000000e+00
	4.199194569694630e-13
	1.049639384461861e-12
	2.101171772100175e-13
	4.199110962210169e-13
	1.049758643485557e-12
	2.099746385139506e-13
	3.000000000000000e-02
	3.000000000000000e-02
	0.000000000000000e+00
	0.000000000000000e+00
	-1.018355032902818e-03
	3.000000000000000e-02
	0.000000000000000e+00
	1.101205040869857e-04
	9.082345288158322e-04
	1.018355032835025e-03

 4	4.000000000000000e-02
	0.000000000000000e+00
	4.000000000000000e-02
	0.000000000000000e+00
	5.000000000000000e+00
	5.519238222596527e-13
	1.379597084008744e-12
	2.761711529666780e-13
	5.519107578171148e-13
	1.379751469716110e-12
	2.759807918702355e-13
	4.000000000000000e-02
	4.000000000000000e-02
	0.000000000000000e+00
	0.000000000000000e+00
	-1.353597901792014e-03
	4.000000000000000e-02
	0.000000000000000e+00
	1.465914476286301e-04
	1.207006454163384e-03
	1.353597901705265e-03

 5	5.000000000000000e-02
	0.000000000000000e+00
	5.000000000000000e-02
	0.000000000000000e+00
	5.000000000000000e+00
	6.818179973734223e-13
	1.704279232252794e-12
	3.411696920215010e-13
	6.817998601307124e-13
	1.704467916669756e-12
	3.409316451539033e-13
	5.000000000000000e-02
	5.000000000000000e-02
	0.000000000000000e+00
	0.000000000000000e+00
	-1.686755348199398e-03
	5.000000000000000e-02
	0.000000000000000e+00
	1.829445801284635e-04
	1.503810768070935e-03
	1.686755348091730e-03

 6	6.000000000000000e-02
	0.000000000000000e+00
	6.000000000000000e-02
	0.000000000000000e+00
	5.000000000000000e+00
	8.102382744076474e-13
	2.025276551976273e-12
	4.054309423690325e-13
	8.102148320436411e-13
	2.025499056529759e-12
	4.051454128199085e-13
	6.000000000000000e-02
	6.000000000000000e-02
	0.000000000000000e+00
	0.000000000000000e+00
	-2.017838619481793e-03
	6.000000000000000e-02
	0.000000000000000e+00
	2.191799821869012e-04
	1.798658637294892e-03
	2.017838619352993e-03

 7	7.000000000000001e-02
	0.000000000000000e+00
	7.000000000000001e-02
	0.000000000000000e+00
	5.000000000000000e+00
	9.376291010636654e-13
	2.343700154796758e-12
	4.691771297896652e-13
	9.376001903495468e-13
	2.343956181258830e-12
	4.688443532791016e-13
	7.000000000000001e-02
	7.000000000000001e-02
	0.000000000000000e+00
	0.000000000000000e+00
	-2.346858869229251e-03
	7.000000000000001e-02
	0.000000000000000e+00
	2.552977343199814e-04
	2.091561134909270e-03
	2.346858869078207e-03

 8	8.000000000000000e-02
	0.000000000000000e+00
	8.000000000000000e-02
	0.000000000000000e+00
	5.000000000000000e+00
	1.064300922628212e-12
	2.660326146112693e-12
	5.325634788401936e-13
	1.064266409919863e-12
	2.660615478014064e-12
	5.321837039812144e-13
	8.000000000000000e-02
	8.000000000000000e-02
	0.000000000000000e+00
	0.000000000000000e+00
	-2.673827157758879e-03
	8.000000000000000e-02
	0.000000000000000e+00
	2.912979169664709e-04
	2.382529240792408e-03
	2.673827157586607e-03

 9	9.000000000000000e-02
	0.000000000000000e+00
	9.000000000000000e-02
	0.000000000000000e+00
	5.000000000000000e+00
	1.190470584378250e-12
	2.975696631108383e-12
	5.956984140563126e-13
	1.190430343402240e-12
	2.976019078393008e-12
	5.952718912640738e-13
	9.000000000000000e-02
	9.000000000000000e-02
	0.000000000000000e+00
	0.000000000000000e+00
	-2.998754452590902e-03
	9.000000000000000e-02
	0.000000000000000e+00
	3.271806104780950e-04
	2.671573842112807e-03
	2.998754452400805e-03

 10	9.999999999999999e-02
	0.000000000000000e+00
	9.999999999999999e-02
	0.000000000000000e+00
	5.000000000000000e+00
	1.316289552495910e-12
	3.290190267033980e-12
	6.586576704101664e-13
	1.316243452554496e-12
	3.290545636768532e-12
	6.581846460205771e-13
	9.999999999999999e-02
	9.999999999999999e-02
	0.000000000000000e+00
	0.000000000000000e+00
	-3.321651628905187e-03
	9.999999999999999e-02
	0.000000000000000e+00
	3.629458951301956e-04
	2.958705733774991e-03
	3.321651628693105e-03

 11	1.100000000000000e-01
	0.000000000000000e+00
	1.100000000000000e-01
	0.000000000000000e+00
	5.000000000000000e+00
	1.441863626254301e-12
	3.604071543662321e-12
	7.214941494033290e-13
	1.441811526555913e-12
	3.604459626067090e-12
	7.209748628543413e-13
	1.100000000000000e-01
	1.100000000000000e-01
	0.000000000000000e+00
	0.000000000000000e+00
	-3.642529469928490e-03
	1.100000000000000e-01
	0.000000000000000e+00
	3.985938511164022e-04
	3.243935618812088e-03
	3.642529469704012e-03

 12	1.200000000000000e-01
	0.000000000000000e+00
	1.200000000000000e-01
	0.000000000000000e+00
	5.000000000000000e+00
	1.567266706887655e-12
	3.917525205456270e-12
	7.842448035019445e-13
	1.567208454356511e-12
	3.917945768641873e-12
	7.836794862543363e-13
	1.200000000000000e-01
	1.200000000000000e-01
	0.000000000000000e+00
	0.000000000000000e+00
	-3.961398667374993e-03
	1.200000000000000e-01
	0.000000000000000e+00
	4.341245585557374e-04
	3.527274108819256e-03
	3.961398667131933e-03

 13	1.300000000000000e-01
	0.000000000000000e+00
	1.300000000000000e-01
	0.000000000000000e+00
	5.000000000000000e+00
	1.692550415079446e-12
	4.230680295280653e-12
	8.469354448808519e-13
	1.692485844040308e-12
	4.231133084680980e-12
	8.463243202765188e-13
	1.300000000000000e-01
	1.300000000000000e-01
	0.000000000000000e+00
	0.000000000000000e+00
	-4.278269821760716e-03
	1.300000000000000e-01
	0.000000000000000e+00
	4.695380974659713e-04
	3.808731724294745e-03
	4.278269821493139e-03

 14	1.400000000000000e-01
	0.000000000000000e+00
	1.400000000000000e-01
	0.000000000000000e+00
	5.000000000000000e+00
	1.817750808728167e-12
	4.543626948807984e-12
	9.095841043065323e-13
	1.817679741515482e-12
	4.544111688932810e-12
	9.089273878889092e-13
	1.400000000000000e-01
	1.400000000000000e-01
	0.000000000000000e+00
	0.000000000000000e+00
	-4.593153442733922e-03
	1.400000000000000e-01
	0.000000000000000e+00
	5.048345478009253e-04
	4.088318894932996e-03
	4.593153442450928e-03

 15	1.500000000000000e-01
	0.000000000000000e+00
	1.500000000000000e-01
	0.000000000000000e+00
	5.000000000000000e+00
	1.942893075270518e-12
	4.856428125317328e-12
	9.722033772987561e-13
	1.942815323215433e-12
	4.856944522458725e-12
	9.715012773221268e-13
	1.500000000000000e-01
	1.500000000000000e-01
	0.000000000000000e+00
	0.000000000000000e+00
	-4.906059949426833e-03
	1.500000000000000e-01
	0.000000000000000e+00
	5.400139894362610e-04
	4.366045959990572e-03
	4.906059949112793e-03

 16	1.600000000000000e-01
	0.000000000000000e+00
	1.600000000000000e-01
	0.000000000000000e+00
	5.000000000000000e+00
	2.067994809243033e-12
	5.169127801588858e-12
	1.034802062911444e-12
	2.067910173738078e-12
	5.169675546731271e-12
	1.034054780889034e-12
	1.600000000000000e-01
	1.600000000000000e-01
	0.000000000000000e+00
	0.000000000000000e+00
	-5.216999670622613e-03
	1.600000000000000e-01
	0.000000000000000e+00
	5.750765021375059e-04
	4.641923168485107e-03
	5.216999670294436e-03

 17	1.700000000000000e-01
	0.000000000000000e+00
	1.700000000000000e-01
	0.000000000000000e+00
	5.000000000000000e+00
	2.193068301640166e-12
	5.481756695289149e-12
	1.097386308411752e-12
	2.192976575128460e-12
	5.482335466840716e-12
	1.096594039626041e-12
	1.700000000000000e-01
	1.700000000000000e-01
	0.000000000000000e+00
	0.000000000000000e+00
	-5.525982845099975e-03
	1.700000000000000e-01
	0.000000000000000e+00
	6.100221656204496e-04
	4.915960679479525e-03
	5.525982844749324e-03

 18	1.800000000000000e-01
	0.000000000000000e+00
	1.800000000000000e-01
	0.000000000000000e+00
	5.000000000000000e+00
	2.318122139017798e-12
	5.794336262719582e-12
	1.159960408831861e-12
	2.318023105838971e-12
	5.794945728895595e-12
	1.159123342773219e-12
	1.800000000000000e-01
	1.800000000000000e-01
	0.000000000000000e+00
	0.000000000000000e+00
	-5.833019621732660e-03
	1.800000000000000e-01
	0.000000000000000e+00
	6.448510595120638e-04
	5.188168562220596e-03
	5.833019621362364e-03

 19	1.900000000000000e-01
	0.000000000000000e+00
	1.900000000000000e-01
	0.000000000000000e+00
	5.000000000000000e+00
	2.443162320457954e-12
	6.106881491217302e-12
	1.222527365451362e-12
	2.443055757530590e-12
	6.107521312025805e-12
	1.221645686174920e-12
	1.900000000000000e-01
	1.900000000000000e-01
	0.000000000000000e+00
	0.000000000000000e+00
	-6.138120059695495e-03
	1.900000000000000e-01
	0.000000000000000e+00
	6.795632633398441e-04
	5.458556796355651e-03
	6.138120059306240e-03

 20	2.000000000000000e-01
	0.000000000000000e+00
	2.000000000000000e-01
	0.000000000000000e+00
	5.000000000000000e+00
	2.568193037762668e-12
	6.419402849628562e-12
	1.285089275894214e-12
	2.568078715107929e-12
	6.420072678470219e-12
	1.284163162297294e-12
	2.000000000000000e-01
	2.000000000000000e-01
	0.000000000000000e+00
	0.000000000000000e+00
	-6.441294128570973e-03
	2.000000000000000e-01
	0.000000000000000e+00
	7.141588565673374e-04
	5.727135272003636e-03
	6.441294128158836e-03

 21	2.100000000000000e-01
	0.000000000000000e+00
	2.100000000000000e-01
	0.000000000000000e+00
	5.000000000000000e+00
	2.693217220415597e-12
	6.731907650700928e-12
	1.347647606609562e-12
	2.693094901538338e-12
	6.732607135624446e-12
	1.346677232637849e-12
	2.100000000000000e-01
	2.100000000000000e-01
	0.000000000000000e+00
	0.000000000000000e+00
	-6.742551708420308e-03
	2.100000000000000e-01
	0.000000000000000e+00
	7.486379185763781e-04
	5.993913789843930e-03
	6.742551707980046e-03

 22	2.200000000000001e-01
	0.000000000000000e+00
	2.200000000000001e-01
	0.000000000000000e+00
	5.000000000000000e+00
	2.818236916235612e-12
	7.044401002704889e-12
	1.410203383198545e-12
	2.818106358383331e-12
	7.045129787369394e-12
	1.409188917991158e-12
	2.200000000000001e-01
	2.200000000000001e-01
	0.000000000000000e+00
	0.000000000000000e+00
	-7.041902589804749e-03
	2.200000000000001e-01
	0.000000000000000e+00
	7.830005286564301e-04
	6.258902061148319e-03
	7.041902589346073e-03

 23	2.300000000000001e-01
	0.000000000000000e+00
	2.300000000000001e-01
	0.000000000000000e+00
	5.000000000000000e+00
	2.943253557262460e-12
	7.356886474135059e-12
	1.472757323357123e-12
	2.943114511582517e-12
	7.357644198531092e-12
	1.471698931340828e-12
	2.300000000000001e-01
	2.300000000000001e-01
	0.000000000000000e+00
	0.000000000000000e+00
	-7.339356473806902e-03
	2.300000000000001e-01
	0.000000000000000e+00
	8.172467660045868e-04
	6.522109707802315e-03
	7.339356473339512e-03

 24	2.400000000000001e-01
	0.000000000000000e+00
	2.400000000000001e-01
	0.000000000000000e+00
	5.000000000000000e+00
	3.068268145477974e-12
	7.669366557999690e-12
	1.535309929736675e-12
	3.068120357091608e-12
	7.670152858975723e-12
	1.534207770678504e-12
	2.400000000000001e-01
	2.400000000000001e-01
	0.000000000000000e+00
	0.000000000000000e+00
	-7.634922971980984e-03
	2.400000000000001e-01
	0.000000000000000e+00
	8.513767097682035e-04
	6.783546262212781e-03
	7.634922971492836e-03

 25	2.500000000000001e-01
	0.000000000000000e+00
	2.500000000000001e-01
	0.000000000000000e+00
	5.000000000000000e+00
	3.193281382533114e-12
	7.981842996124087e-12
	1.597861554807506e-12
	3.193124590542139e-12
	7.982657507758896e-12
	1.596715783833727e-12
	2.500000000000001e-01
	2.500000000000001e-01
	0.000000000000000e+00
	0.000000000000000e+00
	-7.928611606196512e-03
	2.500000000000001e-01
	0.000000000000000e+00
	8.853904389880540e-04
	7.043221167208458e-03
	7.928611605683412e-03

 26	2.600000000000001e-01
	0.000000000000000e+00
	2.600000000000001e-01
	0.000000000000000e+00
	5.000000000000000e+00
	3.318293760363656e-12
	8.294317005675012e-12
	1.660412446166662e-12
	3.318127697802896e-12
	8.295159359529239e-12
	1.659223213754649e-12
	2.600000000000001e-01
	2.600000000000001e-01
	0.000000000000000e+00
	0.000000000000000e+00
	-8.220431808503292e-03
	2.600000000000001e-01
	0.000000000000000e+00
	9.192880326196473e-04
	7.301143775883645e-03
	8.220431807977435e-03

 27	2.700000000000001e-01
	0.000000000000000e+00
	2.700000000000001e-01
	0.000000000000000e+00
	5.000000000000000e+00
	3.443305624486997e-12
	8.606789437387175e-12
	1.722962778186301e-12
	3.443130018232936e-12
	8.607659262660928e-12
	1.721730230134541e-12
	2.700000000000001e-01
	2.700000000000001e-01
	0.000000000000000e+00
	0.000000000000000e+00
	-8.510392920975107e-03
	2.700000000000001e-01
	0.000000000000000e+00
	9.530695695829650e-04
	7.557323351392142e-03
	8.510392920420426e-03

 28	2.800000000000001e-01
	0.000000000000000e+00
	2.800000000000001e-01
	0.000000000000000e+00
	5.000000000000000e+00
	3.568317218217127e-12
	8.919260886084402e-12
	1.785512674121130e-12
	3.568131788860985e-12
	8.920157809702194e-12
	1.784236951501497e-12
	2.800000000000001e-01
	2.800000000000001e-01
	0.000000000000000e+00
	0.000000000000000e+00
	-8.798504195340229e-03
	2.800000000000001e-01
	0.000000000000000e+00
	9.867351286274584e-04
	7.811769066712770e-03
	8.798504194771547e-03

 29	2.900000000000001e-01
	0.000000000000000e+00
	2.900000000000001e-01
	0.000000000000000e+00
	5.000000000000000e+00
	3.693328713551189e-12
	9.231731767879005e-12
	1.848062221551637e-12
	3.693133175242692e-12
	9.232655414518449e-12
	1.846743460647056e-12
	2.900000000000001e-01
	2.900000000000001e-01
	0.000000000000000e+00
	0.000000000000000e+00
	-9.084774792761152e-03
	2.900000000000001e-01
	0.000000000000000e+00
	1.020284788481263e-03
	8.064490004279889e-03
	9.084774792178899e-03

 30	3.000000000000001e-01
	0.000000000000000e+00
	3.000000000000001e-01
	0.000000000000000e+00
	5.000000000000000e+00
	3.818340232746436e-12
	9.544202374096331e-12
	1.910611483172502e-12
	3.818134293013053e-12
	9.545152366173339e-12
	1.909249815402416e-12
	3.000000000000001e-01
	3.000000000000001e-01
	0.000000000000000e+00
	0.000000000000000e+00
	-9.369213783401165e-03
	3.000000000000001e-01
	0.000000000000000e+00
	1.053718627794353e-03
	8.315495155606811e-03
	9.369213782792738e-03

 31	3.100000000000001e-01
	0.000000000000000e+00
	3.100000000000001e-01
	0.000000000000000e+00
	5.000000000000000e+00
	3.943351863394648e-12
	9.856672908942093e-12
	1.973160504329722e-12
	3.943135222939785e-12
	9.857648866562189e-12
	1.971756056165121e-12
	3.100000000000001e-01
	3.100000000000001e-01
	0.000000000000000e+00
	0.000000000000000e+00
	-9.651830145941176e-03
	3.100000000000001e-01
	0.000000000000000e+00
	1.087036725110124e-03
	8.564793420831052e-03
	9.651830145313400e-03

 32	3.200000000000001e-01
	0.000000000000000e+00
	3.200000000000001e-01
	0.000000000000000e+00
	5.000000000000000e+00
	4.068363668954727e-12
	1.016914351581426e-11
	2.035709318286831e-12
	4.068136021437418e-12
	1.017014505669722e-11
	2.034262211156107e-12
	3.200000000000001e-01
	3.200000000000001e-01
	0.000000000000000e+00
	0.000000000000000e+00
	-9.932632767132077e-03
	3.200000000000001e-01
	0.000000000000000e+00
	1.120239158900915e-03
	8.812393608231162e-03
	9.932632766470346e-03

 33	3.300000000000001e-01
	0.000000000000000e+00
	3.300000000000001e-01
	0.000000000000000e+00
	5.000000000000000e+00
	4.193375696113088e-12
	1.048161429568344e-11
	2.098257949904986e-12
	4.193136727910919e-12
	1.048264103506660e-11
	2.096768300091513e-12
	3.300000000000001e-01
	3.300000000000001e-01
	0.000000000000000e+00
	0.000000000000000e+00
	-1.021163044110551e-02
	3.300000000000001e-01
	0.000000000000000e+00
	1.153326007532485e-03
	9.058304433573028e-03
	1.021163044042877e-02

 34	3.400000000000001e-01
	0.000000000000000e+00
	3.400000000000001e-01
	0.000000000000000e+00
	5.000000000000000e+00
	4.318387979928387e-12
	1.079408531993317e-11
	2.160806418215219e-12
	4.318137369884877e-12
	1.079513687045743e-11
	2.159274336747275e-12
	3.400000000000001e-01
	3.400000000000001e-01
	0.000000000000000e+00
	0.000000000000000e+00
	-1.048883186879834e-02
	3.400000000000001e-01
	0.000000000000000e+00
	1.186297349299537e-03
	9.302534519498806e-03
	1.048883186811968e-02

 35	3.500000000000001e-01
	0.000000000000000e+00
	3.500000000000001e-01
	0.000000000000000e+00
	5.000000000000000e+00
	4.443400547428899e-12
	1.110655663933071e-11
	2.223354738216999e-12
	4.443137966585990e-12
	1.110763261091194e-11
	2.221780330750368e-12
	3.500000000000001e-01
	3.500000000000001e-01
	0.000000000000000e+00
	0.000000000000000e+00
	-1.076424565718526e-02
	3.500000000000001e-01
	0.000000000000000e+00
	1.219153262447037e-03
	9.545092394738219e-03
	1.076424565648925e-02

 36	3.600000000000002e-01
	0.000000000000000e+00
	3.600000000000002e-01
	0.000000000000000e+00
	5.000000000000000e+00
	4.568413420129217e-12
	1.141902829029502e-11
	2.285902922136435e-12
	4.568138531445303e-12
	1.142012828998308e-11
	2.284286288829928e-12
	3.600000000000002e-01
	3.600000000000002e-01
	0.000000000000000e+00
	0.000000000000000e+00
	-1.103788031839059e-02
	3.600000000000002e-01
	0.000000000000000e+00
	1.251893825092054e-03
	9.785986493298537e-03
	1.103788031766311e-02

 37	3.700000000000002e-01
	0.000000000000000e+00
	3.700000000000002e-01
	0.000000000000000e+00
	5.000000000000000e+00
	4.693426615792344e-12
	1.173150029927708e-11
	2.348450980307166e-12
	4.693139073845870e-12
	1.173262393110366e-11
	2.346792215691077e-12
	3.700000000000002e-01
	3.700000000000002e-01
	0.000000000000000e+00
	0.000000000000000e+00
	-1.130974426875753e-02
	3.700000000000002e-01
	0.000000000000000e+00
	1.284519115280602e-03
	1.002522515347692e-02
	1.130974426802041e-02

 38	3.800000000000002e-01
	0.000000000000000e+00
	3.800000000000002e-01
	0.000000000000000e+00
	5.000000000000000e+00
	4.818440149664891e-12
	1.204397268582170e-11
	2.410998921787786e-12
	4.818139600343443e-12
	1.204511955063812e-11
	2.409298114625272e-12
	3.800000000000002e-01
	3.800000000000002e-01
	0.000000000000000e+00
	0.000000000000000e+00
	-1.157984582795279e-02
	3.800000000000002e-01
	0.000000000000000e+00
	1.317029210980536e-03
	1.026281661697226e-02
	1.157984582717286e-02

 39	3.900000000000002e-01
	0.000000000000000e+00
	3.900000000000002e-01
	0.000000000000000e+00
	5.000000000000000e+00
	4.943454035344502e-12
	1.235644546470859e-11
	2.473546754795356e-12
	4.943140115519052e-12
	1.235761516001392e-11
	2.471803987936597e-12
	3.900000000000002e-01
	3.900000000000002e-01
	0.000000000000000e+00
	0.000000000000000e+00
	-1.184819321761665e-02
	3.900000000000002e-01
	0.000000000000000e+00
	1.349424190053128e-03
	1.049876902756353e-02
	1.184819321684311e-02

 40	4.000000000000002e-01
	0.000000000000000e+00
	4.000000000000002e-01
	0.000000000000000e+00
	5.000000000000000e+00
	5.068468285390586e-12
	1.266891864745027e-11
	2.536094487010568e-12
	5.068140622574506e-12
	1.267011076721031e-11
	2.534309837239505e-12
	4.000000000000002e-01
	4.000000000000002e-01
	0.000000000000000e+00
	0.000000000000000e+00
	-1.211479456043207e-02
	4.000000000000002e-01
	0.000000000000000e+00
	1.381704130324124e-03
	1.073309043010795e-02
	1.211479455963662e-02

 41	4.100000000000002e-01
	0.000000000000000e+00
	4.100000000000002e-01
	0.000000000000000e+00
	5.000000000000000e+00
	5.193482911756048e-12
	1.298139224334111e-11
	2.598642125793374e-12
	5.193141123748310e-12
	1.298260637779815e-11
	2.596815663666791e-12
	4.100000000000002e-01
	4.100000000000002e-01
	0.000000000000000e+00
	0.000000000000000e+00
	-1.237965787852602e-02
	4.100000000000002e-01
	0.000000000000000e+00
	1.413869109512689e-03
	1.096578876901333e-02
	1.237965787770079e-02

 42	4.200000000000002e-01
	0.000000000000000e+00
	4.200000000000002e-01
	0.000000000000000e+00
	5.000000000000000e+00
	5.318497926094225e-12
	1.329386626019271e-11
	2.661189678336204e-12
	5.318141620606185e-12
	1.329510199566614e-11
	2.659321468014833e-12
	4.200000000000002e-01
	4.200000000000002e-01
	0.000000000000000e+00
	0.000000000000000e+00
	-1.264279109211941e-02
	4.200000000000002e-01
	0.000000000000000e+00
	1.445919205195878e-03
	1.119687188692353e-02
	1.264279109126478e-02

 43	4.300000000000002e-01
	0.000000000000000e+00
	4.300000000000002e-01
	0.000000000000000e+00
	5.000000000000000e+00
	5.443513339978959e-12
	1.360634070485058e-11
	2.723737151773730e-12
	5.443142114243960e-12
	1.360759762352812e-11
	2.721827250845055e-12
	4.300000000000002e-01
	4.300000000000002e-01
	0.000000000000000e+00
	0.000000000000000e+00
	-1.290420201792131e-02
	4.300000000000002e-01
	0.000000000000000e+00
	1.477854494950748e-03
	1.142634752297056e-02
	1.290420201705274e-02

 44	4.400000000000002e-01
	0.000000000000000e+00
	4.400000000000002e-01
	0.000000000000000e+00
	5.000000000000000e+00
	5.568529165064248e-12
	1.391881558355799e-11
	2.786284553262393e-12
	5.568142605429295e-12
	1.392009326327733e-11
	2.784333012554778e-12
	4.400000000000002e-01
	4.400000000000002e-01
	0.000000000000000e+00
	0.000000000000000e+00
	-1.316389836743781e-02
	4.400000000000002e-01
	0.000000000000000e+00
	1.509675056212245e-03
	1.165422331122556e-02
	1.316389836656310e-02

 45	4.500000000000002e-01
	0.000000000000000e+00
	4.500000000000002e-01
	0.000000000000000e+00
	5.000000000000000e+00
	5.693545413202078e-12
	1.423129090221347e-11
	2.848831890038999e-12
	5.693143094700675e-12
	1.423258891623389e-11
	2.846838753426720e-12
	4.500000000000002e-01
	4.500000000000002e-01
	0.000000000000000e+00
	0.000000000000000e+00
	-1.342188774509623e-02
	4.500000000000002e-01
	0.000000000000000e+00
	1.541380966372685e-03
	1.188050677872354e-02
	1.342188774420558e-02

 46	4.600000000000002e-01
	0.000000000000000e+00
	4.600000000000002e-01
	0.000000000000000e+00
	5.000000000000000e+00
	5.818562096531288e-12
	1.454376666655397e-11
	2.911379169464803e-12
	5.818143582436533e-12
	1.454508458331763e-11
	2.909344473663562e-12
	4.600000000000002e-01
	4.600000000000002e-01
	0.000000000000000e+00
	0.000000000000000e+00
	-1.367817764622714e-02
	4.600000000000002e-01
	0.000000000000000e+00
	1.572972302710696e-03
	1.210520534351645e-02
	1.367817764528761e-02

 47	4.700000000000003e-01
	0.000000000000000e+00
	4.700000000000003e-01
	0.000000000000000e+00
	5.000000000000000e+00
	5.943579227546638e-12
	1.485624288228647e-11
	2.973926399059667e-12
	5.943144068903559e-12
	1.485758026516885e-11
	2.971850173412093e-12
	4.700000000000003e-01
	4.700000000000003e-01
	0.000000000000000e+00
	0.000000000000000e+00
	-1.393277545479066e-02
	4.700000000000003e-01
	0.000000000000000e+00
	1.604449142405429e-03
	1.232832631238523e-02
	1.393277545384067e-02

 48	4.800000000000003e-01
	0.000000000000000e+00
	4.800000000000003e-01
	0.000000000000000e+00
	5.000000000000000e+00
	6.068596819154339e-12
	1.516871955518360e-11
	3.036473586529425e-12
	6.068144554290411e-12
	1.517007596223258e-11
	3.034355852780075e-12
	4.800000000000003e-01
	4.800000000000003e-01
	0.000000000000000e+00
	0.000000000000000e+00
	-1.418568844125900e-02
	4.800000000000003e-01
	0.000000000000000e+00
	1.635811562607614e-03
	1.254987687865139e-02
	1.418568844027699e-02

 49	4.900000000000003e-01
	0.000000000000000e+00
	4.900000000000003e-01
	0.000000000000000e+00
	5.000000000000000e+00
	6.193614884718581e-12
	1.548119669115453e-11
	3.099020739788707e-12
	6.193145038731287e-12
	1.548257167481752e-11
	3.096861511848021e-12
	4.900000000000003e-01
	4.900000000000003e-01
	0.000000000000000e+00
	0.000000000000000e+00
	-1.443692375985961e-02
	4.900000000000003e-01
	0.000000000000000e+00
	1.667059640311663e-03
	1.276986411954795e-02
	1.443692375886600e-02

 50	5.000000000000002e-01
	0.000000000000000e+00
	5.000000000000002e-01
	0.000000000000000e+00
	5.000000000000000e+00
	6.318633438102115e-12
	1.579367429629851e-11
	3.161567866980760e-12
	6.318145522322367e-12
	1.579506740313715e-11
	3.159367150677424e-12
	5.000000000000002e-01
	5.000000000000002e-01
	0.000000000000000e+00
	0.000000000000000e+00
	-1.468648844601717e-02
	5.000000000000002e-01
	0.000000000000000e+00
	1.698193452440933e-03
	1.298829499357623e-02
	1.468648844501967e-02

 51	5.100000000000002e-01
	0.000000000000000e+00
	5.100000000000002e-01
	0.000000000000000e+00
	5.000000000000000e+00
	6.443652493703212e-12
	1.610615237694692e-11
	3.224114976495426e-12
	6.443146005133327e-12
	1.610756314733846e-11
	3.221872769316507e-12
	5.100000000000002e-01
	5.100000000000002e-01
	0.000000000000000e+00
	0.000000000000000e+00
	-1.493438941338354e-02
	5.100000000000002e-01
	0.000000000000000e+00
	1.729213075890357e-03
	1.320517633749319e-02
	1.493438941237457e-02

 52	5.200000000000002e-01
	0.000000000000000e+00
	5.200000000000002e-01
	0.000000000000000e+00
	5.000000000000000e+00
	6.568672066490446e-12
	1.641863093969711e-11
	3.286662076985993e-12
	6.568146487215340e-12
	1.642005890752205e-11
	3.284378367804225e-12
	5.200000000000002e-01
	5.200000000000002e-01
	0.000000000000000e+00
	0.000000000000000e+00
	-1.518063345071141e-02
	5.200000000000002e-01
	0.000000000000000e+00
	1.760118587398551e-03
	1.342051486331286e-02
	1.518063344965834e-02

 53	5.300000000000002e-01
	0.000000000000000e+00
	5.300000000000002e-01
	0.000000000000000e+00
	5.000000000000000e+00
	6.693692172036509e-12
	1.673110999144106e-11
	3.349209177385518e-12
	6.693146968606704e-12
	1.673255468375609e-11
	3.346883946173083e-12
	5.300000000000002e-01
	5.300000000000002e-01
	0.000000000000000e+00
	0.000000000000000e+00
	-1.542522721838679e-02
	5.300000000000002e-01
	0.000000000000000e+00
	1.790910063675710e-03
	1.363431715471108e-02
	1.542522721732704e-02

 54	5.400000000000003e-01
	0.000000000000000e+00
	5.400000000000003e-01
	0.000000000000000e+00
	5.000000000000000e+00
	6.818712826551827e-12
	1.704358953939055e-11
	3.411756286923013e-12
	6.818147449336760e-12
	1.704505047608616e-11
	3.409389504451091e-12
	5.400000000000003e-01
	5.400000000000003e-01
	0.000000000000000e+00
	0.000000000000000e+00
	-1.566817724504688e-02
	5.400000000000003e-01
	0.000000000000000e+00
	1.821587581275708e-03
	1.384658966377117e-02
	1.566817724395913e-02

 55	5.500000000000003e-01
	0.000000000000000e+00
	5.500000000000003e-01
	0.000000000000000e+00
	5.000000000000000e+00
	6.943734046918615e-12
	1.735606959110021e-11
	3.474303415139807e-12
	6.943147929428620e-12
	1.735754628454208e-11
	3.471895042663127e-12
	5.500000000000003e-01
	5.500000000000003e-01
	0.000000000000000e+00
	0.000000000000000e+00
	-1.590948992348729e-02
	5.500000000000003e-01
	0.000000000000000e+00
	1.852151216695574e-03
	1.405733870679171e-02
	1.590948992239099e-02

 56	5.600000000000003e-01
	0.000000000000000e+00
	5.600000000000003e-01
	0.000000000000000e+00
	5.000000000000000e+00
	7.068755850725765e-12
	1.766855015448945e-11
	3.536850571906268e-12
	7.068148408901078e-12
	1.767004210914266e-11
	3.534400560831898e-12
	5.600000000000003e-01
	5.600000000000003e-01
	0.000000000000000e+00
	0.000000000000000e+00
	-1.614917150671147e-02
	5.600000000000003e-01
	0.000000000000000e+00
	1.882601046403920e-03
	1.426657046030755e-02
	1.614917150557786e-02

 57	5.700000000000003e-01
	0.000000000000000e+00
	5.700000000000003e-01
	0.000000000000000e+00
	5.000000000000000e+00
	7.193778256304927e-12
	1.798103123786375e-11
	3.599397767439085e-12
	7.193148887769960e-12
	1.798253794989905e-11
	3.596906058978607e-12
	5.700000000000003e-01
	5.700000000000003e-01
	0.000000000000000e+00
	0.000000000000000e+00
	-1.638722810328375e-02
	5.700000000000003e-01
	0.000000000000000e+00
	1.912937146670401e-03
	1.447429095661334e-02
	1.638722810216316e-02

 58	5.800000000000003e-01
	0.000000000000000e+00
	5.800000000000003e-01
	0.000000000000000e+00
	5.000000000000000e+00
	7.318801282768084e-12
	1.829351284993604e-11
	3.661945012319230e-12
	7.318149366049037e-12
	1.829503380681709e-11
	3.659411537123419e-12
	5.800000000000003e-01
	5.800000000000003e-01
	0.000000000000000e+00
	0.000000000000000e+00
	-1.662366567290974e-02
	5.800000000000003e-01
	0.000000000000000e+00
	1.943159593793098e-03
	1.468050607911664e-02
	1.662366567173807e-02

 59	5.900000000000003e-01
	0.000000000000000e+00
	5.900000000000003e-01
	0.000000000000000e+00
	5.000000000000000e+00
	7.443824950046794e-12
	1.860599499984834e-11
	3.724492317510702e-12
	7.443149843750702e-12
	1.860752967989892e-11
	3.721916995285790e-12
	5.900000000000003e-01
	5.900000000000003e-01
	0.000000000000000e+00
	0.000000000000000e+00
	-1.685849002093676e-02
	5.900000000000003e-01
	0.000000000000000e+00
	1.973268463828504e-03
	1.488522155710825e-02