Title: ** sch_path:
Date: Sun Mar 20 21:18:18  2022
Plotname: DC transfer characteristic
Flags: real
No. Variables: 21
No. Points: 501
Variables:
	0	v-sweep	voltage
	1	b	voltage
	2	d5v0	voltage
	3	i(e1)	current
	4	g5v0	voltage
	5	m.xm1.msky130_fd_pr__nfet_g5v0d10v5#body	voltage
	6	m.xm1.msky130_fd_pr__nfet_g5v0d10v5#dbody	voltage
	7	m.xm1.msky130_fd_pr__nfet_g5v0d10v5#sbody	voltage
	8	m.xm2.msky130_fd_pr__nfet_g5v0d10v5#body	voltage
	9	m.xm2.msky130_fd_pr__nfet_g5v0d10v5#dbody	voltage
	10	m.xm2.msky130_fd_pr__nfet_g5v0d10v5#sbody	voltage
	11	net1	voltage
	12	net2	voltage
	13	s	voltage
	14	i(vb)	current
	15	i(vd)	current
	16	i(vg)	current
	17	vgs	voltage
	18	i(vn_long)	current
	19	i(vn_short)	current
	20	i(vs)	current
Values:
 0	0.000000000000000e+00
	0.000000000000000e+00
	5.000000000000000e+00
	0.000000000000000e+00
	0.000000000000000e+00
	2.449681046490372e-10
	2.476202931953095e-10
	1.224840523208661e-10
	9.865641519312297e-11
	1.744644484691892e-10
	4.932820759508709e-11
	5.000000000000000e+00
	5.000000000000000e+00
	0.000000000000000e+00
	0.000000000000000e+00
	-6.787104211980477e-11
	0.000000000000000e+00
	0.000000000000000e+00
	6.593836587853730e-12
	6.127720553195104e-11
	4.891507205124957e-11

 1	1.000000000000000e-02
	0.000000000000000e+00
	5.000000000000000e+00
	0.000000000000000e+00
	1.000000000000000e-02
	2.712099706712536e-10
	2.607412262060882e-10
	1.356049853315837e-10
	9.782620624516246e-11
	1.740493439952193e-10
	4.891310312111924e-11
	5.000000000000000e+00
	5.000000000000000e+00
	0.000000000000000e+00
	0.000000000000000e+00
	-7.787548383930698e-11
	0.000000000000000e+00
	1.000000000000000e-02
	6.593836587853730e-12
	7.128164725145325e-11
	5.796885335468362e-11

 2	2.000000000000000e-02
	0.000000000000000e+00
	5.000000000000000e+00
	0.000000000000000e+00
	2.000000000000000e-02
	3.088657193161689e-10
	2.795691005280731e-10
	1.544328596534808e-10
	9.703427516989290e-11
	1.736533784575945e-10
	4.851713758349630e-11
	5.000000000000000e+00
	5.000000000000000e+00
	0.000000000000000e+00
	0.000000000000000e+00
	-9.208633855450898e-11
	0.000000000000000e+00
	2.000000000000000e-02
	6.366462912410498e-12
	8.571987564209849e-11
	7.082990104346227e-11

 3	3.000000000000000e-02
	0.000000000000000e+00
	5.000000000000000e+00
	0.000000000000000e+00
	3.000000000000000e-02
	3.511379574000420e-10
	3.007052195694789e-10
	1.755689786947881e-10
	9.625379102135105e-11
	1.732631363833333e-10
	4.812689550923704e-11
	5.000000000000000e+00
	5.000000000000000e+00
	0.000000000000000e+00
	0.000000000000000e+00
	-1.080024958355352e-10
	0.000000000000000e+00
	3.000000000000000e-02
	6.366462912410498e-12
	1.016360329231247e-10
	8.523306888739444e-11

 4	4.000000000000000e-02
	0.000000000000000e+00
	5.000000000000000e+00
	0.000000000000000e+00
	4.000000000000000e-02
	4.021812313838002e-10
	3.262268565607172e-10
	2.010906156859074e-10
	9.549615522105326e-11
	1.728843184831939e-10
	4.774807760909946e-11
	5.000000000000000e+00
	5.000000000000000e+00
	0.000000000000000e+00
	0.000000000000000e+00
	-1.273292582482100e-10
	0.000000000000000e+00
	4.000000000000000e-02
	6.252776074688882e-12
	1.210764821735211e-10
	1.025659658044632e-10

 5	5.000000000000000e-02
	0.000000000000000e+00
	5.000000000000000e+00
	0.000000000000000e+00
	5.000000000000000e-02
	4.637752918031790e-10
	3.570238867696333e-10
	2.318876458946799e-10
	9.476424297518120e-11
	1.725183623602670e-10
	4.738212148617438e-11
	5.000000000000000e+00
	5.000000000000000e+00
	0.000000000000000e+00
	0.000000000000000e+00
	-1.506350599811412e-10
	0.000000000000000e+00
	5.000000000000000e-02
	6.366462912410498e-12
	1.442685970687307e-10
	1.234248622897805e-10

 6	6.000000000000000e-02
	0.000000000000000e+00
	5.000000000000000e+00
	0.000000000000000e+00
	6.000000000000000e-02
	5.380617302579709e-10
	3.941671059960966e-10
	2.690308651209700e-10
	9.406214453921470e-11
	1.721673131422925e-10
	4.703107226820163e-11
	5.000000000000000e+00
	5.000000000000000e+00
	0.000000000000000e+00
	0.000000000000000e+00
	-1.787157088983804e-10
	0.000000000000000e+00
	6.000000000000000e-02
	6.366462912410498e-12
	1.723492459859699e-10
	1.485275142207319e-10

 7	7.000000000000001e-02
	0.000000000000000e+00
	5.000000000000000e+00
	0.000000000000000e+00
	7.000000000000001e-02
	6.276175355628458e-10
	4.389450086474096e-10
	3.138087677720742e-10
	9.339563570510237e-11
	1.718340587252447e-10
	4.669781785115543e-11
	5.000000000000000e+00
	5.000000000000000e+00
	0.000000000000000e+00
	0.000000000000000e+00
	-2.124806997017004e-10
	0.000000000000000e+00
	7.000000000000001e-02
	6.252776074688882e-12
	2.062279236270115e-10
	1.787379629284255e-10

 8	8.000000000000000e-02
	0.000000000000000e+00
	5.000000000000000e+00
	0.000000000000000e+00
	8.000000000000000e-02
	7.355436037420038e-10
	4.929080427356337e-10
	3.677718018600467e-10
	9.277282640632455e-11
	1.715226540758636e-10
	4.638641320177584e-11
	5.000000000000000e+00
	5.000000000000000e+00
	0.000000000000000e+00
	0.000000000000000e+00
	-2.531805876060389e-10
	0.000000000000000e+00
	8.000000000000000e-02
	6.366462912410498e-12
	2.468141246936284e-10
	2.150964154178419e-10

 9	9.000000000000000e-02
	0.000000000000000e+00
	5.000000000000000e+00
	0.000000000000000e+00
	9.000000000000000e-02
	8.655712388038183e-10
	5.579218602649085e-10
	4.327856193890182e-10
	9.220505214430538e-11
	1.712387669448611e-10
	4.610252607077474e-11
	5.000000000000000e+00
	5.000000000000000e+00
	0.000000000000000e+00
	0.000000000000000e+00
	-3.020659278263338e-10
	0.000000000000000e+00
	9.000000000000000e-02
	6.252776074688882e-12
	2.958131517516449e-10
	2.588552497130077e-10

 10	9.999999999999999e-02
	0.000000000000000e+00
	5.000000000000000e+00
	0.000000000000000e+00
	9.999999999999999e-02
	1.022190304647256e-09
	6.362313931846613e-10
	5.110951523084058e-10
	9.170809473858696e-11
	1.709902882420080e-10
	4.585404736792298e-11
	5.000000000000000e+00
	5.000000000000000e+00
	0.000000000000000e+00
	0.000000000000000e+00
	-3.611830834415741e-10
	0.000000000000000e+00
	9.999999999999999e-02
	6.593836587853730e-12
	3.545892468537204e-10
	3.115224087735545e-10

 11	1.100000000000000e-01
	0.000000000000000e+00
	5.000000000000000e+00
	0.000000000000000e+00
	1.100000000000000e-01
	1.210803426948411e-09
	7.305379543328708e-10
	6.054017134561754e-10
	9.130384699328955e-11
	1.707881643693644e-10
	4.565192349528034e-11
	5.000000000000000e+00
	5.000000000000000e+00
	0.000000000000000e+00
	0.000000000000000e+00
	-4.320099833421409e-10
	0.000000000000000e+00
	1.100000000000000e-01
	6.593836587853730e-12
	4.254161467542872e-10
	3.749137062823228e-10

 12	1.200000000000000e-01
	0.000000000000000e+00
	5.000000000000000e+00
	0.000000000000000e+00
	1.200000000000000e-01
	1.437911542042010e-09
	8.440920118768188e-10
	7.189557709995937e-10
	9.102257142316146e-11
	1.706475265843038e-10
	4.551128571022053e-11
	5.000000000000000e+00
	5.000000000000000e+00
	0.000000000000000e+00
	0.000000000000000e+00
	-5.173887984710746e-10
	0.000000000000000e+00
	1.200000000000000e-01
	6.821210263296962e-12
	5.105675882077776e-10
	4.512158842854039e-10

 13	1.300000000000000e-01
	0.000000000000000e+00
	5.000000000000000e+00
	0.000000000000000e+00
	1.300000000000000e-01
	1.711337164472983e-09
	9.808048230888725e-10
	8.556685822110098e-10
	9.090594715816230e-11
	1.705892144518057e-10
	4.545297357772274e-11
	5.000000000000000e+00
	5.000000000000000e+00
	0.000000000000000e+00
	0.000000000000000e+00
	-6.199343260959722e-10
	0.000000000000000e+00
	1.300000000000000e-01
	6.821210263296962e-12
	6.131131158326752e-10
	5.430626422470295e-10

 14	1.400000000000000e-01
	0.000000000000000e+00
	5.000000000000000e+00
	0.000000000000000e+00
	1.400000000000000e-01
	2.040493038134123e-09
	1.145382759915311e-09
	1.020246519036680e-09
	9.101115196847745e-11
	1.706418168569619e-10
	4.550557598287879e-11
	5.000000000000000e+00
	5.000000000000000e+00
	0.000000000000000e+00
	0.000000000000000e+00
	-7.436256055370905e-10
	0.000000000000000e+00
	1.400000000000000e-01
	7.275957614183426e-12
	7.363496479229070e-10
	6.536263138244723e-10

 15	1.500000000000000e-01
	0.000000000000000e+00
	5.000000000000000e+00
	0.000000000000000e+00
	1.500000000000000e-01
	2.436705401304840e-09
	1.343488941495695e-09
	1.218352700616140e-09
	9.141628736476322e-11
	1.708443845550996e-10
	4.570814368101571e-11
	5.000000000000000e+00
	5.000000000000000e+00
	0.000000000000000e+00
	0.000000000000000e+00
	-8.930101103032939e-10
	0.000000000000000e+00
	1.500000000000000e-01
	8.071765478234738e-12
	8.849383448250592e-10
	7.867284191732337e-10

 16	1.600000000000000e-01
	0.000000000000000e+00
	5.000000000000000e+00
	0.000000000000000e+00
	1.600000000000000e-01
	2.913602960622972e-09
	1.581937721148773e-09
	1.456801480268106e-09
	9.222752146694206e-11
	1.712500016061788e-10
	4.611376073209312e-11
	5.000000000000000e+00
	5.000000000000000e+00
	0.000000000000000e+00
	0.000000000000000e+00
	-1.071953192877118e-09
	0.000000000000000e+00
	1.600000000000000e-01
	8.412825991399586e-12
	1.063540366885718e-09
	9.469729747934629e-10

 17	1.700000000000000e-01
	0.000000000000000e+00
	5.000000000000000e+00
	0.000000000000000e+00
	1.700000000000000e-01
	3.487584935508435e-09
	1.868928708584299e-09
	1.743792467702293e-09
	9.358839159903187e-11
	1.719304366722066e-10
	4.679419579811785e-11
	5.000000000000000e+00
	5.000000000000000e+00
	0.000000000000000e+00
	0.000000000000000e+00
	-1.287958184548188e-09
	0.000000000000000e+00
	1.700000000000000e-01
	9.322320693172514e-12
	1.278635863855015e-09
	1.139907231649459e-09

 18	1.800000000000000e-01
	0.000000000000000e+00
	5.000000000000000e+00
	0.000000000000000e+00
	1.800000000000000e-01
	4.178384242229277e-09
	2.214328361936048e-09
	2.089192121052430e-09
	9.569176745516431e-11
	1.729821246002463e-10
	4.784588372615285e-11
	5.000000000000000e+00
	5.000000000000000e+00
	0.000000000000000e+00
	0.000000000000000e+00
	-1.547959982417524e-09
	0.000000000000000e+00
	1.800000000000000e-01
	1.080024958355352e-11
	1.537159732833970e-09
	1.372215444574052e-09

 19	1.900000000000000e-01
	0.000000000000000e+00
	5.000000000000000e+00
	0.000000000000000e+00
	1.900000000000000e-01
	5.009745154385980e-09
	2.630008818003962e-09
	2.504872577118406e-09
	9.879501289459680e-11
	1.745337473199235e-10
	4.939750644582302e-11
	5.000000000000000e+00
	5.000000000000000e+00
	0.000000000000000e+00
	0.000000000000000e+00
	-1.861394594016019e-09
	0.000000000000000e+00
	1.900000000000000e-01
	1.273292582482100e-11
	1.848661668191198e-09
	1.651952385312435e-09

 20	2.000000000000000e-01
	0.000000000000000e+00
	5.000000000000000e+00
	0.000000000000000e+00
	2.000000000000000e-01
	6.010238711089204e-09
	3.130255596343014e-09
	3.005119355455124e-09
	1.032388823847888e-10
	1.767556820649636e-10
	5.161944119085301e-11
	5.000000000000000e+00
	5.000000000000000e+00
	0.000000000000000e+00
	0.000000000000000e+00
	-2.238380147900898e-09
	0.000000000000000e+00
	2.000000000000000e-01
	1.523403625469655e-11
	2.223146111646201e-09
	1.988824625564559e-09

 21	2.100000000000000e-01
	0.000000000000000e+00
	5.000000000000000e+00
	0.000000000000000e+00
	2.100000000000000e-01
	7.214243864240219e-09
	3.732258172903406e-09
	3.607121932012707e-09
	1.094706268078823e-10
	1.798715542764319e-10
	5.473531340230715e-11
	5.000000000000000e+00
	5.000000000000000e+00
	0.000000000000000e+00
	0.000000000000000e+00
	-2.692445377761032e-09
	0.000000000000000e+00
	2.100000000000000e-01
	1.864464138634503e-11
	2.673800736374687e-09
	2.394529165439029e-09

 22	2.200000000000001e-01
	0.000000000000000e+00
	5.000000000000000e+00
	0.000000000000000e+00
	2.200000000000001e-01
	8.663128051287425e-09
	4.456700266408818e-09
	4.331564025514741e-09
	1.180716447852137e-10
	1.841720632649894e-10
	5.903582239084506e-11
	5.000000000000000e+00
	5.000000000000000e+00
	0.000000000000000e+00
	0.000000000000000e+00
	-3.239847501390614e-09
	0.000000000000000e+00
	2.200000000000001e-01
	2.341948857065290e-11
	3.216428012819961e-09
	2.883160821719488e-09

 23	2.300000000000001e-01
	0.000000000000000e+00
	5.000000000000000e+00
	0.000000000000000e+00
	2.300000000000001e-01
	1.040666772030651e-08
	5.328470100896474e-09
	5.203333859998330e-09
	1.297897917520524e-10
	1.900311367482614e-10
	6.489489587409029e-11
	5.000000000000000e+00
	5.000000000000000e+00
	0.000000000000000e+00
	0.000000000000000e+00
	-3.898094291798770e-09
	0.000000000000000e+00
	2.300000000000001e-01
	2.933120413217694e-11
	3.868763087666593e-09
	3.471701972569011e-09

 24	2.400000000000001e-01
	0.000000000000000e+00
	5.000000000000000e+00
	0.000000000000000e+00
	2.400000000000001e-01
	1.250475756932575e-08
	6.377515025379754e-09
	6.252378784476716e-09
	1.455761624318609e-10
	1.979243220879672e-10
	7.278808121375994e-11
	5.000000000000000e+00
	5.000000000000000e+00
	0.000000000000000e+00
	0.000000000000000e+00
	-4.691514732257929e-09
	0.000000000000000e+00
	2.400000000000001e-01
	3.763034328585491e-11
	4.653884388972074e-09
	4.180610869946950e-09

 25	2.500000000000001e-01
	0.000000000000000e+00
	5.000000000000000e+00
	0.000000000000000e+00
	2.500000000000001e-01
	1.502946716168599e-08
	7.639869821528175e-09
	7.514733580619245e-09
	1.666258382268039e-10
	2.084491599851740e-10
	8.331291911091858e-11
	5.000000000000000e+00
	5.000000000000000e+00
	0.000000000000000e+00
	0.000000000000000e+00
	-5.647393663821276e-09
	0.000000000000000e+00
	2.500000000000001e-01
	4.854427970713004e-11
	5.598849384114146e-09
	5.034527889408273e-09

 26	2.600000000000001e-01
	0.000000000000000e+00
	5.000000000000000e+00
	0.000000000000000e+00
	2.600000000000001e-01
	1.806751550024216e-08
	9.158893990768122e-09
	9.033757749852108e-09
	1.944218241900020e-10
	2.223471529664235e-10
	9.721091209210452e-11
	5.000000000000000e+00
	5.000000000000000e+00
	0.000000000000000e+00
	0.000000000000000e+00
	-6.798586582590360e-09
	0.000000000000000e+00
	2.600000000000001e-01
	6.275513442233205e-11
	6.735831448168028e-09
	6.063122947701373e-09

 27	2.700000000000001e-01
	0.000000000000000e+00
	5.000000000000000e+00
	0.000000000000000e+00
	2.700000000000001e-01
	2.172324846657255e-08
	1.098676047388742e-08
	1.086162423296288e-08
	2.307813107666062e-10
	2.405268962542684e-10
	1.153906553798662e-10
	5.000000000000000e+00
	5.000000000000000e+00
	0.000000000000000e+00
	0.000000000000000e+00
	-8.185224942280911e-09
	0.000000000000000e+00
	2.700000000000001e-01
	8.128608897095546e-11
	8.103938853309955e-09
	7.302112065005722e-09

 28	2.800000000000001e-01
	0.000000000000000e+00
	5.000000000000000e+00
	0.000000000000000e+00
	2.800000000000001e-01
	2.612222127117475e-08
	1.318624687613329e-08
	1.306111063519849e-08
	2.779036160623136e-10
	2.640880489015296e-10
	1.389518080270195e-10
	5.000000000000000e+00
	5.000000000000000e+00
	0.000000000000000e+00
	0.000000000000000e+00
	-9.855398275249172e-09
	0.000000000000000e+00
	2.800000000000001e-01
	1.052740117302164e-10
	9.750124263518956e-09
	8.794476914409159e-09

 29	2.900000000000001e-01
	0.000000000000000e+00
	5.000000000000000e+00
	0.000000000000000e+00
	2.900000000000001e-01
	3.141550879076138e-08
	1.583289063586016e-08
	1.570775439491301e-08
	3.384197980779554e-10
	2.943461399085896e-10
	1.692098990339409e-10
	5.000000000000000e+00
	5.000000000000000e+00
	0.000000000000000e+00
	0.000000000000000e+00
	-1.186720055557089e-08
	0.000000000000000e+00
	2.900000000000001e-01
	1.360831447527744e-10
	1.173111741081811e-08
	1.059192842625552e-08

 30	3.000000000000001e-01
	0.000000000000000e+00
	5.000000000000000e+00
	0.000000000000000e+00
	3.000000000000001e-01
	3.778489159180664e-08
	1.901758203630282e-08
	1.889244579534082e-08
	4.154449953594717e-10
	3.328587385483793e-10
	2.077224976735542e-10
	5.000000000000000e+00
	5.000000000000000e+00
	0.000000000000000e+00
	0.000000000000000e+00
	-1.428963969374308e-08
	0.000000000000000e+00
	3.000000000000001e-01
	1.751914169290103e-10
	1.411444827681407e-08
	1.275666434479881e-08

 31	3.100000000000001e-01
	0.000000000000000e+00
	5.000000000000000e+00
	0.000000000000000e+00
	3.100000000000001e-01
	4.544909541247797e-08
	2.284968394654227e-08
	2.272454770556238e-08
	5.126359615169820e-10
	3.814542216259124e-10
	2.563179807508647e-10
	5.000000000000000e+00
	5.000000000000000e+00
	0.000000000000000e+00
	0.000000000000000e+00
	-1.720650288916659e-08
	0.000000000000000e+00
	3.100000000000001e-01
	2.243041308247484e-10
	1.698219875834184e-08
	1.536348131090923e-08

 32	3.200000000000001e-01
	0.000000000000000e+00
	5.000000000000000e+00
	0.000000000000000e+00
	3.200000000000001e-01
	5.467129790692759e-08
	2.746078519365130e-08
	2.733564895264991e-08
	6.342577877285509e-10
	4.422651347301676e-10
	3.171288938548414e-10
	5.000000000000000e+00
	5.000000000000000e+00
	0.000000000000000e+00
	0.000000000000000e+00
	-2.071931248792680e-08
	0.000000000000000e+00
	3.200000000000001e-01
	2.860360837075859e-10
	2.043327640421921e-08
	1.850231480481305e-08

 33	3.300000000000001e-01
	0.000000000000000e+00
	5.000000000000000e+00
	0.000000000000000e+00
	3.300000000000001e-01
	6.576815975622623e-08
	3.300921611816131e-08
	3.288407987713402e-08
	7.852651764394321e-10
	5.177688290837096e-10
	3.926325882080374e-10
	5.000000000000000e+00
	5.000000000000000e+00
	0.000000000000000e+00
	0.000000000000000e+00
	-2.494857653800864e-08
	0.000000000000000e+00
	3.300000000000001e-01
	3.625473254942335e-10
	2.458602921251440e-08
	2.228129540171617e-08

 34	3.400000000000001e-01
	0.000000000000000e+00
	5.000000000000000e+00
	0.000000000000000e+00
	3.400000000000001e-01
	7.912068929608798e-08
	3.968548088792456e-08
	3.956034464686613e-08
	9.714045890618311e-10
	6.108385353925687e-10
	4.857022945164701e-10
	5.000000000000000e+00
	5.000000000000000e+00
	0.000000000000000e+00
	0.000000000000000e+00
	-3.003901838383172e-08
	0.000000000000000e+00
	3.400000000000001e-01
	4.565663402900100e-10
	2.958245204354171e-08
	2.683042764982154e-08

 35	3.500000000000001e-01
	0.000000000000000e+00
	5.000000000000000e+00
	0.000000000000000e+00
	3.500000000000001e-01
	9.518731232083161e-08
	4.771879240009466e-08
	4.759365615899876e-08
	1.199344021074598e-09
	7.248082513960861e-10
	5.996720105194655e-10
	5.000000000000000e+00
	5.000000000000000e+00
	0.000000000000000e+00
	0.000000000000000e+00
	-3.616617050283821e-08
	0.000000000000000e+00
	3.500000000000001e-01
	5.717311069020070e-10
	3.559443939593621e-08
	3.230601899569193e-08

 36	3.600000000000002e-01
	0.000000000000000e+00
	5.000000000000000e+00
	0.000000000000000e+00
	3.600000000000002e-01
	1.145195938060513e-07
	5.738493314246182e-08
	5.725979690132082e-08
	1.476837125021428e-09
	8.635548033660120e-10
	7.384185624887558e-10
	5.000000000000000e+00
	5.000000000000000e+00
	0.000000000000000e+00
	0.000000000000000e+00
	-4.354069460532628e-08
	0.000000000000000e+00
	3.600000000000002e-01
	7.120206646504812e-10
	4.282867394067580e-08
	3.889601129534175e-08

 37	3.700000000000002e-01
	0.000000000000000e+00
	5.000000000000000e+00
	0.000000000000000e+00
	3.700000000000002e-01
	1.377811484142457e-07
	6.901571044626697e-08
	6.889057420507171e-08
	1.812928137649246e-09
	1.031600309675696e-09
	9.064640687976692e-10
	5.000000000000000e+00
	5.000000000000000e+00
	0.000000000000000e+00
	0.000000000000000e+00
	-5.241508915787563e-08
	0.000000000000000e+00
	3.700000000000002e-01
	8.819824870442972e-10
	5.153310667083133e-08
	4.682639749762508e-08

 38	3.800000000000002e-01
	0.000000000000000e+00
	5.000000000000000e+00
	0.000000000000000e+00
	3.800000000000002e-01
	1.657703847901819e-07
	8.301032863388370e-08
	8.288519239262313e-08
	2.218203890054328e-09
	1.234238185873141e-09
	1.109101944994186e-09
	5.000000000000000e+00
	5.000000000000000e+00
	0.000000000000000e+00
	0.000000000000000e+00
	-6.309346645139158e-08
	0.000000000000000e+00
	3.800000000000002e-01
	1.086732481780928e-09
	6.200673396961065e-08
	5.636894222121663e-08

 39	3.900000000000002e-01
	0.000000000000000e+00
	5.000000000000000e+00
	0.000000000000000e+00
	3.900000000000002e-01
	1.994478583292257e-07
	9.984906540298283e-08
	9.972392916164371e-08
	2.705099391115253e-09
	1.477685936397482e-09
	1.352549695517411e-09
	5.000000000000000e+00
	5.000000000000000e+00
	0.000000000000000e+00
	0.000000000000000e+00
	-7.594132966914913e-08
	0.000000000000000e+00
	3.900000000000002e-01
	1.332523424935061e-09
	7.460880624421407e-08
	6.785046849276159e-08

 40	4.000000000000002e-01
	0.000000000000000e+00
	5.000000000000000e+00
	0.000000000000000e+00
	4.000000000000002e-01
	2.399691624940057e-07
	1.201097174848641e-07
	1.199845812434305e-07
	3.288264283863166e-09
	1.769268382764106e-09
	1.644132141882700e-09
	5.000000000000000e+00
	5.000000000000000e+00
	0.000000000000000e+00
	0.000000000000000e+00
	-9.139932899415726e-08
	0.000000000000000e+00
	4.000000000000002e-01
	1.627199708309490e-09
	8.977212928584777e-08
	8.166402538163533e-08

 41	4.100000000000002e-01
	0.000000000000000e+00
	5.000000000000000e+00
	0.000000000000000e+00
	4.100000000000002e-01
	2.887244748053868e-07
	1.444873736399426e-07
	1.443622373983952e-07
	3.984998973399854e-09
	2.117635727523689e-09
	1.992499486640687e-09
	5.000000000000000e+00
	5.000000000000000e+00
	0.000000000000000e+00
	0.000000000000000e+00
	-1.099953124139574e-07
	0.000000000000000e+00
	4.100000000000002e-01
	1.978946784220170e-09
	1.080163656297373e-07
	9.828231437280426e-08

 42	4.200000000000002e-01
	0.000000000000000e+00
	5.000000000000000e+00
	0.000000000000000e+00
	4.200000000000002e-01
	3.473860961598070e-07
	1.738181843164162e-07
	1.736930480747320e-07
	4.815771412482412e-09
	2.533021947054523e-09
	2.407885706169618e-09
	5.000000000000000e+00
	5.000000000000000e+00
	0.000000000000000e+00
	0.000000000000000e+00
	-1.323667220276548e-07
	0.000000000000000e+00
	4.200000000000002e-01
	2.398678589088377e-09
	1.299680434385664e-07
	1.182738280389890e-07

 43	4.300000000000002e-01
	0.000000000000000e+00
	5.000000000000000e+00
	0.000000000000000e+00
	4.300000000000002e-01
	4.179655879276750e-07
	2.091079301994641e-07
	2.089827939576153e-07
	5.804828364777140e-09
	3.027550423189451e-09
	2.902414182302280e-09
	5.000000000000000e+00
	5.000000000000000e+00
	0.000000000000000e+00
	0.000000000000000e+00
	-1.592782155057648e-07
	0.000000000000000e+00
	4.300000000000002e-01
	2.898332240874879e-09
	1.563798832648899e-07
	1.423222452061539e-07

 44	4.400000000000002e-01
	0.000000000000000e+00
	5.000000000000000e+00
	0.000000000000000e+00
	4.400000000000002e-01
	5.028824283261857e-07
	2.515663503976533e-07
	2.514412141556065e-07
	6.980918415800784e-09
	3.615595448686486e-09
	3.490459207796621e-09
	5.000000000000000e+00
	5.000000000000000e+00
	0.000000000000000e+00
	0.000000000000000e+00
	-1.916489509312669e-07
	0.000000000000000e+00
	4.400000000000002e-01
	3.492004907457158e-09
	1.881569460238097e-07
	1.712497350648589e-07

 45	4.500000000000002e-01
	0.000000000000000e+00
	5.000000000000000e+00
	0.000000000000000e+00
	4.500000000000002e-01
	6.050464869636554e-07
	3.026483797151056e-07
	3.025232434728205e-07
	8.378148087421853e-09
	4.314210284479453e-09
	4.189074043586386e-09
	5.000000000000000e+00
	5.000000000000000e+00
	0.000000000000000e+00
	0.000000000000000e+00
	-2.305868065377581e-07
	0.000000000000000e+00
	4.500000000000002e-01
	4.197659109195229e-09
	2.263891474285629e-07
	2.060449517202209e-07

 46	4.600000000000002e-01
	0.000000000000000e+00
	5.000000000000000e+00
	0.000000000000000e+00
	4.600000000000002e-01
	7.279570647209493e-07
	3.641036685922095e-07
	3.639785323496377e-07
	1.003699722303875e-08
	5.143634852267041e-09
	5.018498611370175e-09
	5.000000000000000e+00
	5.000000000000000e+00
	0.000000000000000e+00
	0.000000000000000e+00
	-2.774213498923928e-07
	0.000000000000000e+00
	4.600000000000002e-01
	5.035303729528096e-09
	2.723860461628647e-07
	2.478966541840531e-07

 47	4.700000000000003e-01
	0.000000000000000e+00
	5.000000000000000e+00
	0.000000000000000e+00
	4.700000000000003e-01
	8.758217770604839e-07
	4.380360247601205e-07
	4.379108885172037e-07
	1.200552551269623e-08
	6.127898997071032e-09
	6.002762756169655e-09
	5.000000000000000e+00
	5.000000000000000e+00
	0.000000000000000e+00
	0.000000000000000e+00
	-3.337521548019140e-07
	0.000000000000000e+00
	4.700000000000003e-01
	6.029495125403628e-09
	3.277226596765104e-07
	2.982340690109810e-07

 48	4.800000000000003e-01
	0.000000000000000e+00
	5.000000000000000e+00
	0.000000000000000e+00
	4.800000000000003e-01
	1.053699185507827e-06
	5.269747289815590e-07
	5.268495927382274e-07
	1.434080886270184e-08
	7.295540672044477e-09
	7.170404431137751e-09
	5.000000000000000e+00
	5.000000000000000e+00
	0.000000000000000e+00
	0.000000000000000e+00
	-4.015017793790321e-07
	0.000000000000000e+00
	4.800000000000003e-01
	7.208882379927672e-09
	3.942928969991044e-07
	3.587753284337223e-07

 49	4.900000000000003e-01
	0.000000000000000e+00
	5.000000000000000e+00
	0.000000000000000e+00
	4.900000000000003e-01
	1.267669818527627e-06
	6.339600454887727e-07
	6.338349092449419e-07
	1.711065260392748e-08
	8.680462542622472e-09
	8.555326301709399e-09
	5.000000000000000e+00
	5.000000000000000e+00
	0.000000000000000e+00
	0.000000000000000e+00
	-4.829818180951406e-07
	0.000000000000000e+00
	4.900000000000003e-01
	8.607798918092158e-09
	4.743740191770485e-07
	4.315855712314113e-07

 50	5.000000000000002e-01
	0.000000000000000e+00
	5.000000000000000e+00
	0.000000000000000e+00
	5.000000000000002e-01
	1.525041083936964e-06
	7.626456781902100e-07
	7.625205419457789e-07
	2.039563868472480e-08
	1.032295558297983e-08
	1.019781934205923e-08
	5.000000000000000e+00
	5.000000000000000e+00
	0.000000000000000e+00
	0.000000000000000e+00
	-5.809689582747524e-07
	0.000000000000000e+00
	5.000000000000002e-01
	1.026683094096370e-08
	5.707021273337887e-07
	5.191465923342355e-07

 51	5.100000000000002e-01
	0.000000000000000e+00
	5.000000000000000e+00
	0.000000000000000e+00
	5.100000000000002e-01
	1.834592574655692e-06
	9.174214235456881e-07
	9.172962873005348e-07
	2.429157651744987e-08
	1.227092449929338e-08
	1.214578825836386e-08
	5.000000000000000e+00
	5.000000000000000e+00
	0.000000000000000e+00
	0.000000000000000e+00
	-6.988007044128608e-07
	0.000000000000000e+00
	5.100000000000002e-01
	1.223497747560032e-08
	6.865657269372605e-07
	6.244402761834877e-07

 52	5.200000000000002e-01
	0.000000000000000e+00
	5.000000000000000e+00
	0.000000000000000e+00
	5.200000000000002e-01
	2.206869420403136e-06
	1.103559846414736e-06
	1.103434710168714e-06
	2.891244267443455e-08
	1.458135757772762e-08
	1.445622133678751e-08
	5.000000000000000e+00
	5.000000000000000e+00
	0.000000000000000e+00
	0.000000000000000e+00
	-8.404844038523152e-07
	0.000000000000000e+00
	5.200000000000002e-01
	1.456930931453826e-08
	8.259150945377769e-07
	7.510484537756809e-07

 53	5.300000000000002e-01
	0.000000000000000e+00
	5.000000000000000e+00
	0.000000000000000e+00
	5.300000000000002e-01
	2.654532648268217e-06
	1.327391460341657e-06
	1.327266324094591e-06
	3.439391394191838e-08
	1.732209321140061e-08
	1.719695697044794e-08
	5.000000000000000e+00
	5.000000000000000e+00
	0.000000000000000e+00
	0.000000000000000e+00
	-1.010834125736437e-06
	0.000000000000000e+00
	5.300000000000002e-01
	1.733872068143683e-08
	9.934954050550004e-07
	9.032722889909993e-07

 54	5.400000000000003e-01
	0.000000000000000e+00
	5.000000000000000e+00
	0.000000000000000e+00
	5.400000000000003e-01
	3.192776985439651e-06
	1.596513628920616e-06
	1.596388492672295e-06
	4.089762229950059e-08
	2.057394739010995e-08
	2.044881114914238e-08
	5.000000000000000e+00
	5.000000000000000e+00
	0.000000000000000e+00
	0.000000000000000e+00
	-1.215626980410889e-06
	0.000000000000000e+00
	5.400000000000003e-01
	2.062552084680647e-08
	1.195001459564082e-06
	1.086274829293492e-06

 55	5.500000000000003e-01
	0.000000000000000e+00
	5.000000000000000e+00
	0.000000000000000e+00
	5.500000000000003e-01
	3.839828155370230e-06
	1.920039213877782e-06
	1.919914077627952e-06
	4.861629036083237e-08
	2.443328142067879e-08
	2.430814517969354e-08
	5.000000000000000e+00
	5.000000000000000e+00
	0.000000000000000e+00
	0.000000000000000e+00
	-1.461793772250530e-06
	0.000000000000000e+00
	5.500000000000003e-01
	2.452691205689916e-08
	1.437266860193631e-06
	1.306250949014515e-06

 56	5.600000000000003e-01
	0.000000000000000e+00
	5.000000000000000e+00
	0.000000000000000e+00
	5.600000000000003e-01
	4.617533450989389e-06
	2.308891861677598e-06
	2.308766725425954e-06
	5.777994306413043e-08
	2.901510777221260e-08
	2.888997153120636e-08
	5.000000000000000e+00
	5.000000000000000e+00
	0.000000000000000e+00
	0.000000000000000e+00
	-1.757647169142729e-06
	0.000000000000000e+00
	5.600000000000003e-01
	2.915965069405502e-08
	1.728487518448674e-06
	1.570629564526187e-06

 57	5.700000000000003e-01
	0.000000000000000e+00
	5.000000000000000e+00
	0.000000000000000e+00
	5.700000000000003e-01
	5.552061150157966e-06
	2.776155711250155e-06
	2.776030574996329e-06
	6.866343750501418e-08
	3.445685499251763e-08
	3.433171875148646e-08
	5.000000000000000e+00
	5.000000000000000e+00
	0.000000000000000e+00
	0.000000000000000e+00
	-2.113147729687626e-06
	0.000000000000000e+00
	5.700000000000003e-01
	3.466357156867161e-08
	2.078484158118954e-06
	1.888313695365076e-06

 58	5.800000000000003e-01
	0.000000000000000e+00
	5.000000000000000e+00
	0.000000000000000e+00
	5.800000000000003e-01
	6.674726056910480e-06
	3.337488164612318e-06
	3.337363028355873e-06
	8.159560943524807e-08
	4.092294095747198e-08
	4.079780471641119e-08
	5.000000000000000e+00
	5.000000000000000e+00
	0.000000000000000e+00
	0.000000000000000e+00
	-2.540222453717433e-06
	0.000000000000000e+00
	5.800000000000003e-01
	4.120545327168657e-08
	2.499017000445747e-06
	2.269964656264708e-06

 59	5.900000000000003e-01
	0.000000000000000e+00
	5.000000000000000e+00
	0.000000000000000e+00
	5.900000000000003e-01
	8.022959926270049e-06
	4.011605099275175e-06
	4.011479963015587e-06
	9.697040370724168e-08
	4.861033809327547e-08
	4.848520185217945e-08
	5.000000000000000e+00
	5.000000000000000e+00
	0.000000000000000e+00
	0.000000000000000e+00
	-3.053139266739890e-06
	0.000000000000000e+00
	5.900000000000003e-01
	4.898640781902941e-08
	3.004152858920861e-06