Title: **.subckt char_schem_pmos_vds g1v8 d1v8 b
Date: Sun Oct  3 20:57:42  2021
Plotname: DC transfer characteristic
Flags: real
No. Variables: 50
No. Points: 181
Variables:
	0	v-sweep	voltage
	1		voltage
	2	@include[current]	capacitance
	3	i(@m.xm6.msky130_fd_pr__pfet_01v8[ib])	current dims=0
	4	i(@m.xm6.msky130_fd_pr__pfet_01v8[id])	current
	5	i(@m.xm6.msky130_fd_pr__pfet_01v8[ig])	current dims=0
	6	i(@m.xm6.msky130_fd_pr__pfet_01v8[is])	current dims=0
	7	i(@m.xm7.msky130_fd_pr__pfet_01v8_lvt[ib])	current dims=0
	8	i(@m.xm7.msky130_fd_pr__pfet_01v8_lvt[id])	current
	9	i(@m.xm7.msky130_fd_pr__pfet_01v8_lvt[ig])	current dims=0
	10	i(@m.xm7.msky130_fd_pr__pfet_01v8_lvt[is])	current dims=0
	11	i(@m.xm8.msky130_fd_pr__pfet_01v8[ib])	current dims=0
	12	i(@m.xm8.msky130_fd_pr__pfet_01v8[id])	current
	13	i(@m.xm8.msky130_fd_pr__pfet_01v8[ig])	current dims=0
	14	i(@m.xm8.msky130_fd_pr__pfet_01v8[is])	current dims=0
	15	i(@m.xm9.msky130_fd_pr__pfet_01v8_lvt[ib])	current dims=0
	16	i(@m.xm9.msky130_fd_pr__pfet_01v8_lvt[id])	current
	17	i(@m.xm9.msky130_fd_pr__pfet_01v8_lvt[ig])	current dims=0
	18	i(@m.xm9.msky130_fd_pr__pfet_01v8_lvt[is])	current dims=0
	19	b	voltage
	20	d1v8	voltage
	21	i(e1)	current
	22	g1v8	voltage
	23	m.xm6.msky130_fd_pr__pfet_01v8#body	voltage
	24	m.xm6.msky130_fd_pr__pfet_01v8#dbody	voltage
	25	m.xm6.msky130_fd_pr__pfet_01v8#sbody	voltage
	26	m.xm7.msky130_fd_pr__pfet_01v8_lvt#body	voltage
	27	m.xm7.msky130_fd_pr__pfet_01v8_lvt#dbody	voltage
	28	m.xm7.msky130_fd_pr__pfet_01v8_lvt#sbody	voltage
	29	m.xm8.msky130_fd_pr__pfet_01v8#body	voltage
	30	m.xm8.msky130_fd_pr__pfet_01v8#dbody	voltage
	31	m.xm8.msky130_fd_pr__pfet_01v8#sbody	voltage
	32	m.xm9.msky130_fd_pr__pfet_01v8_lvt#body	voltage
	33	m.xm9.msky130_fd_pr__pfet_01v8_lvt#dbody	voltage
	34	m.xm9.msky130_fd_pr__pfet_01v8_lvt#sbody	voltage
	35	net1	voltage
	36	net2	voltage
	37	net3	voltage
	38	net4	voltage
	39	s	voltage
	40	sky130_fd_pr__esd_nfet_05v0_nvt.pm3	voltage
	41	i(vb)	current
	42	i(vd)	current
	43	vds	voltage
	44	i(vg)	current
	45	i(vp_long)	current
	46	i(vp_lvt_long)	current
	47	i(vp_lvt_short)	current
	48	i(vp_short)	current
	49	i(vs)	current
Values:
 0	0.000000000000000e+00
	0.000000000000000e+00
	0.000000000000000e+00
	0.000000000000000e+00
	9.761002917621323e-05
	0.000000000000000e+00
	0.000000000000000e+00
	0.000000000000000e+00
	2.969267439599197e-04
	0.000000000000000e+00
	0.000000000000000e+00
	0.000000000000000e+00
	6.719486903872837e-04
	0.000000000000000e+00
	0.000000000000000e+00
	0.000000000000000e+00
	1.833196774792330e-03
	0.000000000000000e+00
	0.000000000000000e+00
	1.800000000000000e+00
	0.000000000000000e+00
	0.000000000000000e+00
	0.000000000000000e+00
	1.799999999861874e+00
	1.799999999885790e+00
	1.799999999930937e+00
	1.799999999977199e+00
	1.799999999943572e+00
	1.799999999988599e+00
	1.799999997418992e+00
	1.799999998664349e+00
	1.799999998709495e+00
	1.799999999897804e+00
	1.799999999903876e+00
	1.799999999948900e+00
	1.800000000000000e+00
	1.800000000000000e+00
	1.800000000000000e+00
	1.800000000000000e+00
	1.800000000000000e+00
	0.000000000000000e+00
	-1.173722577463288e-10
	2.899682355687861e-03
	1.800000000000000e+00
	0.000000000000000e+00
	9.761002917940687e-05
	2.969267439709711e-04
	1.833196774811086e-03
	6.719486903747907e-04
	-2.899682238336254e-03

 1	1.000000000000000e-02
	0.000000000000000e+00
	0.000000000000000e+00
	0.000000000000000e+00
	9.760240842090841e-05
	0.000000000000000e+00
	0.000000000000000e+00
	0.000000000000000e+00
	2.968780447200151e-04
	0.000000000000000e+00
	0.000000000000000e+00
	0.000000000000000e+00
	6.715035992998228e-04
	0.000000000000000e+00
	0.000000000000000e+00
	0.000000000000000e+00
	1.830650656138301e-03
	0.000000000000000e+00
	0.000000000000000e+00
	1.800000000000000e+00
	1.000000000000000e-02
	0.000000000000000e+00
	0.000000000000000e+00
	1.799999999870095e+00
	1.799999999890150e+00
	1.799999999935047e+00
	1.799999999977359e+00
	1.799999999943903e+00
	1.799999999988680e+00
	1.799999997703453e+00
	1.799999998806830e+00
	1.799999998851726e+00
	1.799999999904289e+00
	1.799999999907369e+00
	1.799999999952144e+00
	1.800000000000000e+00
	1.800000000000000e+00
	1.800000000000000e+00
	1.800000000000000e+00
	1.800000000000000e+00
	0.000000000000000e+00
	-1.053791637284363e-10
	2.896639370349396e-03
	1.790000000000000e+00
	0.000000000000000e+00
	9.760243781897771e-05
	2.968783082692994e-04
	1.830653830261042e-03
	6.715046886398568e-04
	-2.896639264989176e-03

 2	2.000000000000000e-02
	0.000000000000000e+00
	0.000000000000000e+00
	0.000000000000000e+00
	9.759472818271028e-05
	0.000000000000000e+00
	0.000000000000000e+00
	0.000000000000000e+00
	2.968288040720627e-04
	0.000000000000000e+00
	0.000000000000000e+00
	0.000000000000000e+00
	6.710563075732524e-04
	0.000000000000000e+00
	0.000000000000000e+00
	0.000000000000000e+00
	1.828098069275822e-03
	0.000000000000000e+00
	0.000000000000000e+00
	1.800000000000000e+00
	2.000000000000000e-02
	0.000000000000000e+00
	0.000000000000000e+00
	1.799999999877463e+00
	1.799999999894084e+00
	1.799999999938731e+00
	1.799999999977513e+00
	1.799999999944230e+00
	1.799999999988756e+00
	1.799999997937138e+00
	1.799999998923922e+00
	1.799999998968568e+00
	1.799999999910010e+00
	1.799999999910479e+00
	1.799999999955004e+00
	1.800000000000000e+00
	1.800000000000000e+00
	1.800000000000000e+00
	1.800000000000000e+00
	1.800000000000000e+00
	0.000000000000000e+00
	-9.548203894205187e-11
	2.893578004585340e-03
	1.780000000000000e+00
	0.000000000000000e+00
	9.759472818871018e-05
	2.968288040676725e-04
	1.828098069282191e-03
	6.710563075671416e-04
	-2.893577909105716e-03

 3	3.000000000000000e-02
	0.000000000000000e+00
	0.000000000000000e+00
	0.000000000000000e+00
	9.758698739955038e-05
	0.000000000000000e+00
	0.000000000000000e+00
	0.000000000000000e+00
	2.967789996405752e-04
	0.000000000000000e+00
	0.000000000000000e+00
	0.000000000000000e+00
	6.706067811749967e-04
	0.000000000000000e+00
	0.000000000000000e+00
	0.000000000000000e+00
	1.825538827241828e-03
	0.000000000000000e+00
	0.000000000000000e+00
	1.800000000000000e+00
	3.000000000000000e-02
	0.000000000000000e+00
	0.000000000000000e+00
	1.799999999884641e+00
	1.799999999897923e+00
	1.799999999942320e+00
	1.799999999977666e+00
	1.799999999944556e+00
	1.799999999988833e+00
	1.799999998160938e+00
	1.799999999036072e+00
	1.799999999080468e+00
	1.799999999915562e+00
	1.799999999913505e+00
	1.799999999957780e+00
	1.800000000000000e+00
	1.800000000000000e+00
	1.800000000000000e+00
	1.800000000000000e+00
	1.800000000000000e+00
	0.000000000000000e+00
	-8.599475298520787e-11
	2.890511681450603e-03
	1.770000000000000e+00
	0.000000000000000e+00
	9.758698740824912e-05
	2.967789996404235e-04
	1.825538827240791e-03
	6.706067811776961e-04
	-2.890511595467160e-03

 4	4.000000000000000e-02
	0.000000000000000e+00
	0.000000000000000e+00
	0.000000000000000e+00
	9.757918498147002e-05
	0.000000000000000e+00
	0.000000000000000e+00
	0.000000000000000e+00
	2.967286078720038e-04
	0.000000000000000e+00
	0.000000000000000e+00
	0.000000000000000e+00
	6.701549855416865e-04
	0.000000000000000e+00
	0.000000000000000e+00
	0.000000000000000e+00
	1.822972737039923e-03
	0.000000000000000e+00
	0.000000000000000e+00
	1.800000000000000e+00
	4.000000000000000e-02
	0.000000000000000e+00
	0.000000000000000e+00
	1.799999999891428e+00
	1.799999999901567e+00
	1.799999999945714e+00
	1.799999999977816e+00
	1.799999999944881e+00
	1.799999999988908e+00
	1.799999998363582e+00
	1.799999999137644e+00
	1.799999999181791e+00
	1.799999999920769e+00
	1.799999999916359e+00
	1.799999999960383e+00
	1.800000000000000e+00
	1.800000000000000e+00
	1.800000000000000e+00
	1.800000000000000e+00
	1.800000000000000e+00
	0.000000000000000e+00
	-7.738314156124915e-11
	2.887435592817678e-03
	1.760000000000000e+00
	0.000000000000000e+00
	9.757918498110030e-05
	2.967286078714437e-04
	1.822972737031137e-03
	6.701549855279154e-04
	-2.887435515411596e-03

 5	5.000000000000000e-02
	0.000000000000000e+00
	0.000000000000000e+00
	0.000000000000000e+00
	9.757131980818177e-05
	0.000000000000000e+00
	0.000000000000000e+00
	0.000000000000000e+00
	2.966776039389413e-04
	0.000000000000000e+00
	0.000000000000000e+00
	0.000000000000000e+00
	6.697008852442339e-04
	0.000000000000000e+00
	0.000000000000000e+00
	0.000000000000000e+00
	1.820399598246894e-03
	0.000000000000000e+00
	0.000000000000000e+00
	1.800000000000000e+00
	5.000000000000000e-02
	0.000000000000000e+00
	0.000000000000000e+00
	1.799999999897839e+00
	1.799999999905022e+00
	1.799999999948920e+00
	1.799999999977963e+00
	1.799999999945204e+00
	1.799999999988981e+00
	1.799999998546718e+00
	1.799999999229462e+00
	1.799999999273358e+00
	1.799999999925646e+00
	1.799999999919047e+00
	1.799999999962822e+00
	1.800000000000000e+00
	1.800000000000000e+00
	1.800000000000000e+00
	1.800000000000000e+00
	1.800000000000000e+00
	0.000000000000000e+00
	-6.958034842741156e-11
	2.884349476818038e-03
	1.750000000000000e+00
	0.000000000000000e+00
	9.757131979171163e-05
	2.966776039272645e-04
	1.820399598216227e-03
	6.697008852469821e-04
	-2.884349407182185e-03

 6	6.000000000000000e-02
	0.000000000000000e+00
	0.000000000000000e+00
	0.000000000000000e+00
	9.756339072821880e-05
	0.000000000000000e+00
	0.000000000000000e+00
	0.000000000000000e+00
	2.966259616618049e-04
	0.000000000000000e+00
	0.000000000000000e+00
	0.000000000000000e+00
	6.692444440247977e-04
	0.000000000000000e+00
	0.000000000000000e+00
	0.000000000000000e+00
	1.817819202909443e-03
	0.000000000000000e+00
	0.000000000000000e+00
	1.800000000000000e+00
	6.000000000000000e-02
	0.000000000000000e+00
	0.000000000000000e+00
	1.799999999903889e+00
	1.799999999908298e+00
	1.799999999951945e+00
	1.799999999978108e+00
	1.799999999945527e+00
	1.799999999989053e+00
	1.799999998711894e+00
	1.799999999312300e+00
	1.799999999355947e+00
	1.799999999930207e+00
	1.799999999921577e+00
	1.799999999965102e+00
	1.800000000000000e+00
	1.800000000000000e+00
	1.800000000000000e+00
	1.800000000000000e+00
	1.800000000000000e+00
	0.000000000000000e+00
	-6.252311862686710e-11
	2.881253061848721e-03
	1.740000000000000e+00
	0.000000000000000e+00
	9.756339072453102e-05
	2.966259616599132e-04
	1.817819202905469e-03
	6.692444440332679e-04
	-2.881252999323181e-03

 7	7.000000000000001e-02
	0.000000000000000e+00
	0.000000000000000e+00
	0.000000000000000e+00
	9.755539655775321e-05
	0.000000000000000e+00
	0.000000000000000e+00
	0.000000000000000e+00
	2.965736534205864e-04
	0.000000000000000e+00
	0.000000000000000e+00
	0.000000000000000e+00
	6.687856247705803e-04
	0.000000000000000e+00
	0.000000000000000e+00
	0.000000000000000e+00
	1.815231335207202e-03
	0.000000000000000e+00
	0.000000000000000e+00
	1.800000000000000e+00
	7.000000000000001e-02
	0.000000000000000e+00
	0.000000000000000e+00
	1.799999999909592e+00
	1.799999999911399e+00
	1.799999999954796e+00
	1.799999999978249e+00
	1.799999999945848e+00
	1.799999999989125e+00
	1.799999998860569e+00
	1.799999999386888e+00
	1.799999999430284e+00
	1.799999999934468e+00
	1.799999999923958e+00
	1.799999999967232e+00
	1.800000000000000e+00
	1.800000000000000e+00
	1.800000000000000e+00
	1.800000000000000e+00
	1.800000000000000e+00
	0.000000000000000e+00
	-5.615186787766291e-11
	2.878146066109366e-03
	1.730000000000000e+00
	0.000000000000000e+00
	9.755539655031953e-05
	2.965736534079610e-04
	1.815231335207557e-03
	6.687856247751256e-04
	-2.878146009940963e-03

 8	8.000000000000000e-02
	0.000000000000000e+00
	0.000000000000000e+00
	0.000000000000000e+00
	9.754733607936098e-05
	0.000000000000000e+00
	0.000000000000000e+00
	0.000000000000000e+00
	2.965206500600208e-04
	0.000000000000000e+00
	0.000000000000000e+00
	0.000000000000000e+00
	6.683243894865826e-04
	0.000000000000000e+00
	0.000000000000000e+00
	0.000000000000000e+00
	1.812635771098724e-03
	0.000000000000000e+00
	0.000000000000000e+00
	1.800000000000000e+00
	8.000000000000000e-02
	0.000000000000000e+00
	0.000000000000000e+00
	1.799999999914963e+00
	1.799999999914335e+00
	1.799999999957482e+00
	1.799999999978390e+00
	1.799999999946168e+00
	1.799999999989195e+00
	1.799999998994109e+00
	1.799999999453908e+00
	1.799999999497054e+00
	1.799999999938442e+00
	1.799999999926195e+00
	1.799999999969220e+00
	1.800000000000000e+00
	1.800000000000000e+00
	1.800000000000000e+00
	1.800000000000000e+00
	1.800000000000000e+00
	0.000000000000000e+00
	-5.041076583944815e-11
	2.875028197135698e-03
	1.720000000000000e+00
	0.000000000000000e+00
	9.754733608247079e-05
	2.965206500604722e-04
	1.812635771102578e-03
	6.683243894798352e-04
	-2.875028146725356e-03

 9	9.000000000000000e-02
	0.000000000000000e+00
	0.000000000000000e+00
	0.000000000000000e+00
	9.753920804072479e-05
	0.000000000000000e+00
	0.000000000000000e+00
	0.000000000000000e+00
	2.964669207876495e-04
	0.000000000000000e+00
	0.000000000000000e+00
	0.000000000000000e+00
	6.678606992672620e-04
	0.000000000000000e+00
	0.000000000000000e+00
	0.000000000000000e+00
	1.810032277949548e-03
	0.000000000000000e+00
	0.000000000000000e+00
	1.800000000000000e+00
	9.000000000000000e-02
	0.000000000000000e+00
	0.000000000000000e+00
	1.799999999920015e+00
	1.799999999917110e+00
	1.799999999960007e+00
	1.799999999978529e+00
	1.799999999946488e+00
	1.799999999989264e+00
	1.799999999113796e+00
	1.799999999514001e+00
	1.799999999556897e+00
	1.799999999942144e+00
	1.799999999928296e+00
	1.799999999971071e+00
	1.800000000000000e+00
	1.800000000000000e+00
	1.800000000000000e+00
	1.800000000000000e+00
	1.800000000000000e+00
	0.000000000000000e+00
	-4.524766672453495e-11
	2.871899151295487e-03
	1.710000000000000e+00
	0.000000000000000e+00
	9.753920803490246e-05
	2.964669207869974e-04
	1.810032277951734e-03
	6.678606992736036e-04
	-2.871899106047238e-03

 10	9.999999999999999e-02
	0.000000000000000e+00
	0.000000000000000e+00
	0.000000000000000e+00
	9.753101115327531e-05
	0.000000000000000e+00
	0.000000000000000e+00
	0.000000000000000e+00
	2.964124330641845e-04
	0.000000000000000e+00
	0.000000000000000e+00
	0.000000000000000e+00
	6.673945142670123e-04
	0.000000000000000e+00
	0.000000000000000e+00
	0.000000000000000e+00
	1.807420614141395e-03
	0.000000000000000e+00
	0.000000000000000e+00
	1.800000000000000e+00
	9.999999999999999e-02
	0.000000000000000e+00
	0.000000000000000e+00
	1.799999999924761e+00
	1.799999999919733e+00
	1.799999999962380e+00
	1.799999999978666e+00
	1.799999999946806e+00
	1.799999999989333e+00
	1.799999999220829e+00
	1.799999999567768e+00
	1.799999999610414e+00
	1.799999999945588e+00
	1.799999999930268e+00
	1.799999999972793e+00
	1.800000000000000e+00
	1.800000000000000e+00
	1.800000000000000e+00
	1.800000000000000e+00
	1.800000000000000e+00
	0.000000000000000e+00
	-4.061324887505435e-11
	2.868758613239653e-03
	1.700000000000000e+00
	0.000000000000000e+00
	9.753101113574303e-05
	2.964124330517848e-04
	1.807420614149180e-03
	6.673945142736670e-04
	-2.868758572610375e-03

 11	1.100000000000000e-01
	0.000000000000000e+00
	0.000000000000000e+00
	0.000000000000000e+00
	9.752274409076241e-05
	0.000000000000000e+00
	0.000000000000000e+00
	0.000000000000000e+00
	2.963571524855374e-04
	0.000000000000000e+00
	0.000000000000000e+00
	0.000000000000000e+00
	6.669257936694420e-04
	0.000000000000000e+00
	0.000000000000000e+00
	0.000000000000000e+00
	1.804800528661421e-03
	0.000000000000000e+00
	0.000000000000000e+00
	1.800000000000000e+00
	1.100000000000000e-01
	0.000000000000000e+00
	0.000000000000000e+00
	1.799999999929216e+00
	1.799999999922210e+00
	1.799999999964608e+00
	1.799999999978801e+00
	1.799999999947124e+00
	1.799999999989401e+00
	1.799999999316328e+00
	1.799999999615767e+00
	1.799999999658163e+00
	1.799999999948787e+00
	1.799999999932117e+00
	1.799999999974392e+00
	1.800000000000000e+00
	1.800000000000000e+00
	1.800000000000000e+00
	1.800000000000000e+00
	1.800000000000000e+00
	0.000000000000000e+00
	-3.646170171345275e-11
	2.865606255369357e-03
	1.690000000000000e+00
	0.000000000000000e+00
	9.752274407759387e-05
	2.963571524858821e-04
	1.804800528653061e-03
	6.669257936806616e-04
	-2.865606218897199e-03

 12	1.200000000000000e-01
	0.000000000000000e+00
	0.000000000000000e+00
	0.000000000000000e+00
	9.751440548775835e-05
	0.000000000000000e+00
	0.000000000000000e+00
	0.000000000000000e+00
	2.963010426558405e-04
	0.000000000000000e+00
	0.000000000000000e+00
	0.000000000000000e+00
	6.664544956553729e-04
	0.000000000000000e+00
	0.000000000000000e+00
	0.000000000000000e+00
	1.802171760670466e-03
	0.000000000000000e+00
	0.000000000000000e+00
	1.800000000000000e+00
	1.200000000000000e-01
	0.000000000000000e+00
	0.000000000000000e+00
	1.799999999933390e+00
	1.799999999924548e+00
	1.799999999966695e+00
	1.799999999978936e+00
	1.799999999947441e+00
	1.799999999989468e+00
	1.799999999401334e+00
	1.799999999658520e+00
	1.799999999700666e+00
	1.799999999951755e+00
	1.799999999933851e+00
	1.799999999975876e+00
	1.800000000000000e+00
	1.800000000000000e+00
	1.800000000000000e+00
	1.800000000000000e+00
	1.800000000000000e+00
	0.000000000000000e+00
	-3.275036492000893e-11
	2.862441737217836e-03
	1.680000000000000e+00
	0.000000000000000e+00
	9.751440548910750e-05
	2.963010426455526e-04
	1.802171760665772e-03
	6.664544956578311e-04
	-2.862441704458263e-03

 13	1.300000000000000e-01
	0.000000000000000e+00
	0.000000000000000e+00
	0.000000000000000e+00
	9.750599393808202e-05
	0.000000000000000e+00
	0.000000000000000e+00
	0.000000000000000e+00
	2.962440650506975e-04
	0.000000000000000e+00
	0.000000000000000e+00
	0.000000000000000e+00
	6.659805773694667e-04
	0.000000000000000e+00
	0.000000000000000e+00
	0.000000000000000e+00
	1.799534039049228e-03
	0.000000000000000e+00
	0.000000000000000e+00
	1.800000000000000e+00
	1.300000000000000e-01
	0.000000000000000e+00
	0.000000000000000e+00
	1.799999999937300e+00
	1.799999999926753e+00
	1.799999999968650e+00
	1.799999999979069e+00
	1.799999999947757e+00
	1.799999999989534e+00
	1.799999999476816e+00
	1.799999999696511e+00
	1.799999999738407e+00
	1.799999999954504e+00
	1.799999999935476e+00
	1.799999999977251e+00
	1.800000000000000e+00
	1.800000000000000e+00
	1.800000000000000e+00
	1.800000000000000e+00
	1.800000000000000e+00
	0.000000000000000e+00
	-2.943943006039618e-11
	2.859264704848208e-03
	1.670000000000000e+00
	0.000000000000000e+00
	9.750599393498760e-05
	2.962440650406961e-04
	1.799534039044204e-03
	6.659805773523431e-04
	-2.859264675372231e-03

 14	1.400000000000000e-01
	0.000000000000000e+00
	0.000000000000000e+00
	0.000000000000000e+00
	9.749750799314430e-05
	0.000000000000000e+00
	0.000000000000000e+00
	0.000000000000000e+00
	2.961861788698657e-04
	0.000000000000000e+00
	0.000000000000000e+00
	0.000000000000000e+00
	6.655039948854773e-04
	0.000000000000000e+00
	0.000000000000000e+00
	0.000000000000000e+00
	1.796887081921074e-03
	0.000000000000000e+00
	0.000000000000000e+00
	1.800000000000000e+00
	1.400000000000000e-01
	0.000000000000000e+00
	0.000000000000000e+00
	1.799999999940957e+00
	1.799999999928831e+00
	1.799999999970479e+00
	1.799999999979200e+00
	1.799999999948073e+00
	1.799999999989600e+00
	1.799999999543676e+00
	1.799999999730191e+00
	1.799999999771837e+00
	1.799999999957046e+00
	1.799999999936997e+00
	1.799999999978522e+00
	1.800000000000000e+00
	1.800000000000000e+00
	1.800000000000000e+00
	1.800000000000000e+00
	1.800000000000000e+00
	0.000000000000000e+00
	-2.649189895231885e-11
	2.856074790160257e-03
	1.660000000000000e+00
	0.000000000000000e+00
	9.749750799414869e-05
	2.961861788790543e-04
	1.796887081916054e-03
	6.655039948881836e-04
	-2.856074763677441e-03

 15	1.500000000000000e-01
	0.000000000000000e+00
	0.000000000000000e+00
	0.000000000000000e+00
	9.748894616020777e-05
	0.000000000000000e+00
	0.000000000000000e+00
	0.000000000000000e+00
	2.961273408784896e-04
	0.000000000000000e+00
	0.000000000000000e+00
	0.000000000000000e+00
	6.650247031699832e-04
	0.000000000000000e+00
	0.000000000000000e+00
	0.000000000000000e+00
	1.794230596150323e-03
	0.000000000000000e+00
	0.000000000000000e+00
	1.800000000000000e+00
	1.500000000000000e-01
	0.000000000000000e+00
	0.000000000000000e+00
	1.799999999944372e+00
	1.799999999930789e+00
	1.799999999972186e+00
	1.799999999979331e+00
	1.799999999948389e+00
	1.799999999989665e+00
	1.799999999602744e+00
	1.799999999759975e+00
	1.799999999801372e+00
	1.799999999959393e+00
	1.799999999938421e+00
	1.799999999979695e+00
	1.800000000000000e+00
	1.800000000000000e+00
	1.800000000000000e+00
	1.800000000000000e+00
	1.800000000000000e+00
	0.000000000000000e+00
	-2.387335468201357e-11
	2.852871610227403e-03
	1.650000000000000e+00
	0.000000000000000e+00
	9.748894616734560e-05
	2.961273408814691e-04
	1.794230596161128e-03
	6.650247031529943e-04
	-2.852871586362937e-03

 16	1.600000000000000e-01
	0.000000000000000e+00
	0.000000000000000e+00
	0.000000000000000e+00
	9.748030690055458e-05
	0.000000000000000e+00
	0.000000000000000e+00
	0.000000000000000e+00
	2.960675052359298e-04
	0.000000000000000e+00
	0.000000000000000e+00
	0.000000000000000e+00
	6.645426560445603e-04
	0.000000000000000e+00
	0.000000000000000e+00
	0.000000000000000e+00
	1.791564276814624e-03
	0.000000000000000e+00
	0.000000000000000e+00
	1.800000000000000e+00
	1.600000000000000e-01
	0.000000000000000e+00
	0.000000000000000e+00
	1.799999999947558e+00
	1.799999999932632e+00
	1.799999999973779e+00
	1.799999999979462e+00
	1.799999999948704e+00
	1.799999999989731e+00
	1.799999999654793e+00
	1.799999999786249e+00
	1.799999999827396e+00
	1.799999999961558e+00
	1.799999999939753e+00
	1.799999999980778e+00
	1.800000000000000e+00
	1.800000000000000e+00
	1.800000000000000e+00
	1.800000000000000e+00
	1.800000000000000e+00
	0.000000000000000e+00
	-2.155212813770291e-11
	2.849654766546195e-03
	1.640000000000000e+00
	0.000000000000000e+00
	9.748030691270060e-05
	2.960675052321449e-04
	1.791564276828694e-03
	6.645426560325518e-04
	-2.849654745006092e-03

 17	1.700000000000000e-01
	0.000000000000000e+00
	0.000000000000000e+00
	0.000000000000000e+00
	9.747158862755938e-05
	0.000000000000000e+00
	0.000000000000000e+00
	0.000000000000000e+00
	2.960066233111728e-04
	0.000000000000000e+00
	0.000000000000000e+00
	0.000000000000000e+00
	6.640578061463164e-04
	0.000000000000000e+00
	0.000000000000000e+00
	0.000000000000000e+00
	1.788887806650101e-03
	0.000000000000000e+00
	0.000000000000000e+00
	1.800000000000000e+00
	1.700000000000000e-01
	0.000000000000000e+00
	0.000000000000000e+00
	1.799999999950527e+00
	1.799999999934366e+00
	1.799999999975263e+00
	1.799999999979591e+00
	1.799999999949018e+00
	1.799999999989795e+00
	1.799999999700530e+00
	1.799999999809368e+00
	1.799999999850264e+00
	1.799999999963551e+00
	1.799999999940999e+00
	1.799999999981774e+00
	1.800000000000000e+00
	1.800000000000000e+00
	1.800000000000000e+00
	1.800000000000000e+00
	1.800000000000000e+00
	0.000000000000000e+00
	-1.949904820941484e-11
	2.846423844229840e-03
	1.630000000000000e+00
	0.000000000000000e+00
	9.747158862438710e-05
	2.960066233157477e-04
	1.788887806632999e-03
	6.640578061478664e-04
	-2.846423824721001e-03

 18	1.800000000000000e-01
	0.000000000000000e+00
	0.000000000000000e+00
	0.000000000000000e+00
	9.746278970465782e-05
	0.000000000000000e+00
	0.000000000000000e+00
	0.000000000000000e+00
	2.959446434836881e-04
	0.000000000000000e+00
	0.000000000000000e+00
	0.000000000000000e+00
	6.635701048866684e-04
	0.000000000000000e+00
	0.000000000000000e+00
	0.000000000000000e+00
	1.786200855467769e-03
	0.000000000000000e+00
	0.000000000000000e+00
	1.800000000000000e+00
	1.800000000000000e-01
	0.000000000000000e+00
	0.000000000000000e+00
	1.799999999953289e+00
	1.799999999935997e+00
	1.799999999976644e+00
	1.799999999979719e+00
	1.799999999949333e+00
	1.799999999989859e+00
	1.799999999740608e+00
	1.799999999829657e+00
	1.799999999870304e+00
	1.799999999965383e+00
	1.799999999942166e+00
	1.799999999982690e+00
	1.800000000000000e+00
	1.800000000000000e+00
	1.800000000000000e+00
	1.800000000000000e+00
	1.800000000000000e+00
	0.000000000000000e+00
	-1.768701157756070e-11
	2.843178411224834e-03
	1.620000000000000e+00
	0.000000000000000e+00
	9.746278970368394e-05
	2.959446434900315e-04
	1.786200855470099e-03
	6.635701048764986e-04
	-2.843178393540313e-03

 19	1.900000000000000e-01
	0.000000000000000e+00
	0.000000000000000e+00
	0.000000000000000e+00
	9.745390844320592e-05
	0.000000000000000e+00
	0.000000000000000e+00
	0.000000000000000e+00
	2.958815109285463e-04
	0.000000000000000e+00
	0.000000000000000e+00
	0.000000000000000e+00
	6.630795024082792e-04
	0.000000000000000e+00
	0.000000000000000e+00
	0.000000000000000e+00
	1.783503079539762e-03
	0.000000000000000e+00
	0.000000000000000e+00
	1.800000000000000e+00
	1.900000000000000e-01
	0.000000000000000e+00
	0.000000000000000e+00
	1.799999999955856e+00
	1.799999999937530e+00
	1.799999999977928e+00
	1.799999999979848e+00
	1.799999999949647e+00
	1.799999999989924e+00
	1.799999999775627e+00
	1.799999999847417e+00
	1.799999999887813e+00
	1.799999999967065e+00
	1.799999999943257e+00
	1.799999999983531e+00
	1.800000000000000e+00
	1.800000000000000e+00
	1.800000000000000e+00
	1.800000000000000e+00
	1.800000000000000e+00
	0.000000000000000e+00
	-1.609119087975230e-11
	2.839918017411236e-03
	1.610000000000000e+00
	0.000000000000000e+00
	9.745390845239399e-05
	2.958815109153079e-04
	1.783503079529680e-03
	6.630795024165081e-04
	-2.839918001313890e-03

 20	2.000000000000000e-01
	0.000000000000000e+00
	0.000000000000000e+00
	0.000000000000000e+00
	9.744494310022430e-05
	0.000000000000000e+00
	0.000000000000000e+00
	0.000000000000000e+00
	2.958171673844854e-04
	0.000000000000000e+00
	0.000000000000000e+00
	0.000000000000000e+00
	6.625859475401048e-04
	0.000000000000000e+00
	0.000000000000000e+00
	0.000000000000000e+00
	1.780794120953709e-03
	0.000000000000000e+00
	0.000000000000000e+00
	1.800000000000000e+00
	2.000000000000000e-01
	0.000000000000000e+00
	0.000000000000000e+00
	1.799999999958237e+00
	1.799999999938971e+00
	1.799999999979119e+00
	1.799999999979975e+00
	1.799999999949961e+00
	1.799999999989987e+00
	1.799999999806133e+00
	1.799999999862920e+00
	1.799999999903066e+00
	1.799999999968607e+00
	1.799999999944277e+00
	1.799999999984302e+00
	1.800000000000000e+00
	1.800000000000000e+00
	1.800000000000000e+00
	1.800000000000000e+00
	1.800000000000000e+00
	0.000000000000000e+00
	-1.468885429956046e-11
	2.836642193664751e-03
	1.600000000000000e+00
	0.000000000000000e+00
	9.744494307284413e-05
	2.958171673839161e-04
	1.780794120925577e-03
	6.625859475448692e-04
	-2.836642178927207e-03

 21	2.100000000000000e-01
	0.000000000000000e+00
	0.000000000000000e+00
	0.000000000000000e+00
	9.743589187601283e-05
	0.000000000000000e+00
	0.000000000000000e+00
	0.000000000000000e+00
	2.957515509035374e-04
	0.000000000000000e+00
	0.000000000000000e+00
	0.000000000000000e+00
	6.620893877503337e-04
	0.000000000000000e+00
	0.000000000000000e+00
	0.000000000000000e+00
	1.778073606933691e-03
	0.000000000000000e+00
	0.000000000000000e+00
	1.800000000000000e+00
	2.100000000000000e-01
	0.000000000000000e+00
	0.000000000000000e+00
	1.799999999960445e+00
	1.799999999940325e+00
	1.799999999980223e+00
	1.799999999980102e+00
	1.799999999950274e+00
	1.799999999990051e+00
	1.799999999832628e+00
	1.799999999876417e+00
	1.799999999916313e+00
	1.799999999970017e+00
	1.799999999945233e+00
	1.799999999985007e+00
	1.800000000000000e+00
	1.800000000000000e+00
	1.800000000000000e+00
	1.800000000000000e+00
	1.800000000000000e+00
	0.000000000000000e+00
	-1.345931699425762e-11
	2.833350450922367e-03
	1.590000000000000e+00
	0.000000000000000e+00
	9.743589186683721e-05
	2.957515508796860e-04
	1.778073606935493e-03
	6.620893877453682e-04
	-2.833350437427384e-03

 22	2.200000000000001e-01
	0.000000000000000e+00
	0.000000000000000e+00
	0.000000000000000e+00
	9.742675291164079e-05
	0.000000000000000e+00
	0.000000000000000e+00
	0.000000000000000e+00
	2.956845955806886e-04
	0.000000000000000e+00
	0.000000000000000e+00
	0.000000000000000e+00
	6.615897690972115e-04
	0.000000000000000e+00
	0.000000000000000e+00
	0.000000000000000e+00
	1.775341149125982e-03
	0.000000000000000e+00
	0.000000000000000e+00
	1.800000000000000e+00
	2.200000000000001e-01
	0.000000000000000e+00
	0.000000000000000e+00
	1.799999999962489e+00
	1.799999999941597e+00
	1.799999999981245e+00
	1.799999999980229e+00
	1.799999999950587e+00
	1.799999999990114e+00
	1.799999999855566e+00
	1.799999999888136e+00
	1.799999999927782e+00
	1.799999999971307e+00
	1.799999999946128e+00
	1.799999999985652e+00
	1.800000000000000e+00
	1.800000000000000e+00
	1.800000000000000e+00
	1.800000000000000e+00
	1.800000000000000e+00
	0.000000000000000e+00
	-1.238336516662386e-11
	2.830042279095224e-03
	1.580000000000000e+00
	0.000000000000000e+00
	9.742675290169700e-05
	2.956845955708332e-04
	1.775341149127030e-03
	6.615897690878114e-04
	-2.830042266687371e-03

 23	2.300000000000001e-01
	0.000000000000000e+00
	0.000000000000000e+00
	0.000000000000000e+00
	9.741752428628731e-05
	0.000000000000000e+00
	0.000000000000000e+00
	0.000000000000000e+00
	2.956162312619772e-04
	0.000000000000000e+00
	0.000000000000000e+00
	0.000000000000000e+00
	6.610870361775793e-04
	0.000000000000000e+00
	0.000000000000000e+00
	0.000000000000000e+00
	1.772596342847771e-03
	0.000000000000000e+00
	0.000000000000000e+00
	1.800000000000000e+00
	2.300000000000001e-01
	0.000000000000000e+00
	0.000000000000000e+00
	1.799999999964379e+00
	1.799999999942792e+00
	1.799999999982189e+00
	1.799999999980356e+00
	1.799999999950901e+00
	1.799999999990178e+00
	1.799999999875360e+00
	1.799999999898283e+00
	1.799999999937679e+00
	1.799999999972484e+00
	1.799999999946966e+00
	1.799999999986241e+00
	1.800000000000000e+00
	1.800000000000000e+00
	1.800000000000000e+00
	1.800000000000000e+00
	1.800000000000000e+00
	0.000000000000000e+00
	-1.144383893203482e-11
	2.826717146016122e-03
	1.570000000000000e+00
	0.000000000000000e+00
	9.741752428737982e-05
	2.956162312415245e-04
	1.772596342846100e-03
	6.610870361711818e-04
	-2.826717134546186e-03

 24	2.400000000000001e-01
	0.000000000000000e+00
	0.000000000000000e+00
	0.000000000000000e+00