Title: ** sch_path:
Date: Sun Mar 13 18:04:17  2022
Plotname: DC transfer characteristic
Flags: real
No. Variables: 21
No. Points: 501
Variables:
	0	v-sweep	voltage
	1	b	voltage
	2	d5v0	voltage
	3	i(e1)	current
	4	g5v0	voltage
	5	m.xm1.msky130_fd_pr__pfet_g5v0d10v5#body	voltage
	6	m.xm1.msky130_fd_pr__pfet_g5v0d10v5#dbody	voltage
	7	m.xm1.msky130_fd_pr__pfet_g5v0d10v5#sbody	voltage
	8	m.xm2.msky130_fd_pr__pfet_g5v0d10v5#body	voltage
	9	m.xm2.msky130_fd_pr__pfet_g5v0d10v5#dbody	voltage
	10	m.xm2.msky130_fd_pr__pfet_g5v0d10v5#sbody	voltage
	11	net1	voltage
	12	net2	voltage
	13	s	voltage
	14	i(vb)	current
	15	i(vd)	current
	16	i(vg)	current
	17	vgs	voltage
	18	i(vp_long)	current
	19	i(vp_short)	current
	20	i(vs)	current
Values:
 0	0.000000000000000e+00
	5.000000000000000e+00
	0.000000000000000e+00
	0.000000000000000e+00
	0.000000000000000e+00
	4.999977579786253e+00
	4.999988789768121e+00
	4.999988789893124e+00
	4.999997723321559e+00
	4.999998861535772e+00
	4.999998861660778e+00
	5.000000000000000e+00
	5.000000000000000e+00
	5.000000000000000e+00
	-9.878806879332069e-07
	2.253923321139820e-02
	0.000000000000000e+00
	5.000000000000000e+00
	4.708268135004801e-03
	1.782997719578816e-02
	-2.253824533079296e-02

 1	1.000000000000000e-02
	5.000000000000000e+00
	0.000000000000000e+00
	0.000000000000000e+00
	1.000000000000000e-02
	4.999977244936894e+00
	4.999988622343441e+00
	4.999988622468445e+00
	4.999997705955932e+00
	4.999998852852959e+00
	4.999998852977965e+00
	5.000000000000000e+00
	5.000000000000000e+00
	5.000000000000000e+00
	-1.001969287345306e-06
	2.246687049696382e-02
	0.000000000000000e+00
	4.990000000000000e+00
	4.689409847060233e-03
	1.777645868048694e-02
	-2.246586852754717e-02

 2	2.000000000000000e-02
	5.000000000000000e+00
	0.000000000000000e+00
	0.000000000000000e+00
	2.000000000000000e-02
	4.999976902266869e+00
	4.999988451008429e+00
	4.999988451133432e+00
	4.999997688781085e+00
	4.999998844265535e+00
	4.999998844390541e+00
	5.000000000000000e+00
	5.000000000000000e+00
	5.000000000000000e+00
	-1.016363082265159e-06
	2.239458325423632e-02
	0.000000000000000e+00
	4.980000000000000e+00
	4.670594735898703e-03
	1.772297215552499e-02
	-2.239356689142369e-02

 3	3.000000000000000e-02
	5.000000000000000e+00
	0.000000000000000e+00
	0.000000000000000e+00
	3.000000000000000e-02
	4.999976557599384e+00
	4.999988278674686e+00
	4.999988278799689e+00
	4.999997671656537e+00
	4.999998835703261e+00
	4.999998835828268e+00
	5.000000000000000e+00
	5.000000000000000e+00
	5.000000000000000e+00
	-1.030834763576793e-06
	2.232231505469626e-02
	0.000000000000000e+00
	4.970000000000000e+00
	4.651790537536726e-03
	1.766949368254700e-02
	-2.232128422008373e-02

 4	4.000000000000000e-02
	5.000000000000000e+00
	0.000000000000000e+00
	0.000000000000000e+00
	4.000000000000000e-02
	4.999976208955830e+00
	4.999988104352909e+00
	4.999988104477913e+00
	4.999997654631398e+00
	4.999998827190691e+00
	4.999998827315698e+00
	5.000000000000000e+00
	5.000000000000000e+00
	5.000000000000000e+00
	-1.045461511320345e-06
	2.225008486388612e-02
	0.000000000000000e+00
	4.960000000000000e+00
	4.633008111682102e-03
	1.761603129068590e-02
	-2.224903940236800e-02

 5	5.000000000000000e-02
	5.000000000000000e+00
	0.000000000000000e+00
	0.000000000000000e+00
	5.000000000000000e-02
	4.999975856308112e+00
	4.999987928029050e+00
	4.999987928154054e+00
	4.999997637707343e+00
	4.999998818728663e+00
	4.999998818853671e+00
	5.000000000000000e+00
	5.000000000000000e+00
	5.000000000000000e+00
	-1.060244382261599e-06
	2.217789279908125e-02
	0.000000000000000e+00
	4.950000000000000e+00
	4.614247537460869e-03
	1.756258501734465e-02
	-2.217683255480551e-02

 6	6.000000000000000e-02
	5.000000000000000e+00
	0.000000000000000e+00
	0.000000000000000e+00
	6.000000000000000e-02
	4.999975499628183e+00
	4.999987749689086e+00
	4.999987749814089e+00
	4.999997620886030e+00
	4.999998810318008e+00
	4.999998810443014e+00
	5.000000000000000e+00
	5.000000000000000e+00
	5.000000000000000e+00
	-1.075184431847953e-06
	2.210573897777055e-02
	0.000000000000000e+00
	4.940000000000000e+00
	4.595508893089573e-03
	1.750915490015359e-02
	-2.210466379324316e-02

 7	7.000000000000001e-02
	5.000000000000000e+00
	0.000000000000000e+00
	0.000000000000000e+00
	7.000000000000001e-02
	4.999975138888052e+00
	4.999987569319020e+00
	4.999987569444023e+00
	4.999997604169093e+00
	4.999998801959538e+00
	4.999998802084546e+00
	5.000000000000000e+00
	5.000000000000000e+00
	5.000000000000000e+00
	-1.090282714513724e-06
	2.203362351766847e-02
	0.000000000000000e+00
	4.930000000000000e+00
	4.576792257466877e-03
	1.745574097765257e-02
	-2.203253323511944e-02

 8	8.000000000000000e-02
	5.000000000000000e+00
	0.000000000000000e+00
	0.000000000000000e+00
	8.000000000000000e-02
	4.999974774059790e+00
	4.999987386904889e+00
	4.999987387029892e+00
	4.999997587558138e+00
	4.999998793654061e+00
	4.999998793779068e+00
	5.000000000000000e+00
	5.000000000000000e+00
	5.000000000000000e+00
	-1.105540283291573e-06
	2.196154653672722e-02
	0.000000000000000e+00
	4.920000000000000e+00
	4.558097709150388e-03
	1.740234328747192e-02
	-2.196044099662231e-02

 9	9.000000000000000e-02
	5.000000000000000e+00
	0.000000000000000e+00
	0.000000000000000e+00
	9.000000000000000e-02
	4.999974405115530e+00
	4.999987202432759e+00
	4.999987202557762e+00
	4.999997571054746e+00
	4.999998785402365e+00
	4.999998785527373e+00
	5.000000000000000e+00
	5.000000000000000e+00
	5.000000000000000e+00
	-1.120958189354537e-06
	2.188950815314876e-02
	0.000000000000000e+00
	4.910000000000000e+00
	4.539425326015589e-03
	1.734896186940205e-02
	-2.188838719541764e-02

 10	9.999999999999999e-02
	5.000000000000000e+00
	0.000000000000000e+00
	0.000000000000000e+00
	9.999999999999999e-02
	4.999974032027475e+00
	4.999987015888731e+00
	4.999987016013734e+00
	4.999997554660482e+00
	4.999998777205233e+00
	4.999998777330241e+00
	5.000000000000000e+00
	5.000000000000000e+00
	5.000000000000000e+00
	-1.136537482099298e-06
	2.181750848539701e-02
	0.000000000000000e+00
	4.900000000000000e+00
	4.520775186165338e-03
	1.729559676175541e-02
	-2.181637194792074e-02

 11	1.100000000000000e-01
	5.000000000000000e+00
	0.000000000000000e+00
	0.000000000000000e+00
	1.100000000000000e-01
	4.999973654767898e+00
	4.999986827258944e+00
	4.999986827383946e+00
	4.999997538376878e+00
	4.999998769063431e+00
	4.999998769188438e+00
	5.000000000000000e+00
	5.000000000000000e+00
	5.000000000000000e+00
	-1.152279209340468e-06
	2.174554765220965e-02
	0.000000000000000e+00
	4.890000000000000e+00
	4.502147368611986e-03
	1.724224800466345e-02
	-2.174439537327544e-02

 12	1.200000000000000e-01
	5.000000000000000e+00
	0.000000000000000e+00
	0.000000000000000e+00
	1.200000000000000e-01
	4.999973273309154e+00
	4.999986636529571e+00
	4.999986636654574e+00
	4.999997522205450e+00
	4.999998760977717e+00
	4.999998761102724e+00
	5.000000000000000e+00
	5.000000000000000e+00
	5.000000000000000e+00
	-1.168184416283635e-06
	2.167362577261022e-02
	0.000000000000000e+00
	4.880000000000000e+00
	4.483541950548897e-03
	1.718891563780289e-02
	-2.167245758835179e-02

 13	1.300000000000000e-01
	5.000000000000000e+00
	0.000000000000000e+00
	0.000000000000000e+00
	1.300000000000000e-01
	4.999972887623677e+00
	4.999986443686833e+00
	4.999986443811835e+00
	4.999997506147684e+00
	4.999998752948834e+00
	4.999998753073841e+00
	5.000000000000000e+00
	5.000000000000000e+00
	5.000000000000000e+00
	-1.184254145969454e-06
	2.160174296592002e-02
	0.000000000000000e+00
	4.870000000000000e+00
	4.464959010306302e-03
	1.713559970141887e-02
	-2.160055871172517e-02

 14	1.400000000000000e-01
	5.000000000000000e+00
	0.000000000000000e+00
	0.000000000000000e+00
	1.400000000000000e-01
	4.999972497683991e+00
	4.999986248716990e+00
	4.999986248841992e+00
	4.999997490205050e+00
	4.999998744977518e+00
	4.999998745102524e+00
	5.000000000000000e+00
	5.000000000000000e+00
	5.000000000000000e+00
	-1.200489438760166e-06
	2.152989935177002e-02
	0.000000000000000e+00
	4.860000000000000e+00
	4.446398626100745e-03
	1.708230023632495e-02
	-2.152869886242570e-02

 15	1.500000000000000e-01
	5.000000000000000e+00
	0.000000000000000e+00
	0.000000000000000e+00
	1.500000000000000e-01
	4.999972103462707e+00
	4.999986051606347e+00
	4.999986051731351e+00
	4.999997474378990e+00
	4.999998737064487e+00
	4.999998737189494e+00
	5.000000000000000e+00
	5.000000000000000e+00
	5.000000000000000e+00
	-1.216891332575520e-06
	2.145809505011265e-02
	0.000000000000000e+00
	4.850000000000000e+00
	4.427860875352962e-03
	1.702901728390316e-02
	-2.145687815925612e-02

 16	1.600000000000000e-01
	5.000000000000000e+00
	0.000000000000000e+00
	0.000000000000000e+00
	1.600000000000000e-01
	4.999971704932544e+00
	4.999985852341267e+00
	4.999985852466269e+00
	4.999997458670925e+00
	4.999998729210454e+00
	4.999998729335461e+00
	5.000000000000000e+00
	5.000000000000000e+00
	5.000000000000000e+00
	-1.233460861727043e-06
	2.138633018123383e-02
	0.000000000000000e+00
	4.840000000000000e+00
	4.409345835824752e-03
	1.697575088485337e-02
	-2.138509672067812e-02

 17	1.700000000000000e-01
	5.000000000000000e+00
	0.000000000000000e+00
	0.000000000000000e+00
	1.700000000000000e-01
	4.999971302066306e+00
	4.999985650908148e+00
	4.999985651033150e+00
	4.999997443082251e+00
	4.999998721416118e+00
	4.999998721541125e+00
	5.000000000000000e+00
	5.000000000000000e+00
	5.000000000000000e+00
	-1.250199058139279e-06
	2.131460486576465e-02
	0.000000000000000e+00
	4.830000000000000e+00
	4.390853585391596e-03
	1.692250108135340e-02
	-2.131335466674500e-02

 18	1.800000000000000e-01
	5.000000000000000e+00
	0.000000000000000e+00
	0.000000000000000e+00
	1.800000000000000e-01
	4.999970894836913e+00
	4.999985447293451e+00
	4.999985447418454e+00
	4.999997427614345e+00
	4.999998713682165e+00
	4.999998713807171e+00
	5.000000000000000e+00
	5.000000000000000e+00
	5.000000000000000e+00
	-1.267106950086916e-06
	2.124291922469330e-02
	0.000000000000000e+00
	4.820000000000000e+00
	4.372384202156354e-03
	1.686926791603582e-02
	-2.124165211819218e-02

 19	1.900000000000000e-01
	5.000000000000000e+00
	0.000000000000000e+00
	0.000000000000000e+00
	1.900000000000000e-01
	4.999970483217398e+00
	4.999985241483692e+00
	4.999985241608696e+00
	4.999997412268562e+00
	4.999998706009273e+00
	4.999998706134280e+00
	5.000000000000000e+00
	5.000000000000000e+00
	5.000000000000000e+00
	-1.284185562042128e-06
	2.117127337937683e-02
	0.000000000000000e+00
	4.810000000000000e+00
	4.353937762971327e-03
	1.681605143085108e-02
	-2.116998919382240e-02

 20	2.000000000000000e-01
	5.000000000000000e+00
	0.000000000000000e+00
	0.000000000000000e+00
	2.000000000000000e-01
	4.999970067180906e+00
	4.999985033465446e+00
	4.999985033590450e+00
	4.999997397046228e+00
	4.999998698398106e+00
	4.999998698523113e+00
	5.000000000000000e+00
	5.000000000000000e+00
	5.000000000000000e+00
	-1.301435915104787e-06
	2.109966745155289e-02
	0.000000000000000e+00
	4.800000000000000e+00
	4.335514346280434e-03
	1.676285166956859e-02
	-2.109836601584902e-02

 21	2.100000000000000e-01
	5.000000000000000e+00
	0.000000000000000e+00
	0.000000000000000e+00
	2.100000000000000e-01
	4.999969646700702e+00
	4.999984823225345e+00
	4.999984823350348e+00
	4.999997381948657e+00
	4.999998690849321e+00
	4.999998690974328e+00
	5.000000000000000e+00
	5.000000000000000e+00
	5.000000000000000e+00
	-1.318859026100405e-06
	2.102810156335174e-02
	0.000000000000000e+00
	4.790000000000000e+00
	4.317114029163349e-03
	1.670966867538937e-02
	-2.102678270455272e-02

 22	2.200000000000001e-01
	5.000000000000000e+00
	0.000000000000000e+00
	0.000000000000000e+00
	2.200000000000001e-01
	4.999969221750185e+00
	4.999984610750086e+00
	4.999984610875090e+00
	4.999997366977133e+00
	4.999998683363558e+00
	4.999998683488565e+00
	5.000000000000000e+00
	5.000000000000000e+00
	5.000000000000000e+00
	-1.336455907677281e-06
	2.095657583730777e-02
	0.000000000000000e+00
	4.780000000000000e+00
	4.298736889495558e-03
	1.665650249219652e-02
	-2.095523938169208e-02

 23	2.300000000000001e-01
	5.000000000000000e+00
	0.000000000000000e+00
	0.000000000000000e+00
	2.300000000000001e-01
	4.999968792302874e+00
	4.999984396026431e+00
	4.999984396151435e+00
	4.999997352132921e+00
	4.999998675941452e+00
	4.999998676066459e+00
	5.000000000000000e+00
	5.000000000000000e+00
	5.000000000000000e+00
	-1.354227568597932e-06
	2.088509039637143e-02
	0.000000000000000e+00
	4.770000000000000e+00
	4.280383004811483e-03
	1.660335316432793e-02
	-2.088373616913941e-02

 24	2.400000000000001e-01
	5.000000000000000e+00
	0.000000000000000e+00
	0.000000000000000e+00
	2.400000000000001e-01
	4.999968358332436e+00
	4.999984179041212e+00
	4.999984179166216e+00
	4.999997337417264e+00
	4.999998668583624e+00
	4.999998668708631e+00
	5.000000000000000e+00
	5.000000000000000e+00
	5.000000000000000e+00
	-1.372175012351318e-06
	2.081364536392109e-02
	0.000000000000000e+00
	4.760000000000000e+00
	4.262052452418175e-03
	1.655022073657619e-02
	-2.081227318899437e-02

 25	2.500000000000001e-01
	5.000000000000000e+00
	0.000000000000000e+00
	0.000000000000000e+00
	2.500000000000001e-01
	4.999967919812675e+00
	4.999983959781331e+00
	4.999983959906334e+00
	4.999997322831387e+00
	4.999998661290686e+00
	4.999998661415693e+00
	5.000000000000000e+00
	5.000000000000000e+00
	5.000000000000000e+00
	-1.390299237957748e-06
	2.074224086377460e-02
	0.000000000000000e+00
	4.750000000000000e+00
	4.243745310191116e-03
	1.649710525430237e-02
	-2.074085056449348e-02

 26	2.600000000000001e-01
	5.000000000000000e+00
	0.000000000000000e+00
	0.000000000000000e+00
	2.600000000000001e-01
	4.999967476717541e+00
	4.999983738233764e+00
	4.999983738358768e+00
	4.999997308376491e+00
	4.999998654063237e+00
	4.999998654188245e+00
	5.000000000000000e+00
	5.000000000000000e+00
	5.000000000000000e+00
	-1.408601239177854e-06
	2.067087702020134e-02
	0.000000000000000e+00
	4.740000000000000e+00
	4.225461655892104e-03
	1.644400676309488e-02
	-2.066946841898698e-02

 27	2.700000000000001e-01
	5.000000000000000e+00
	0.000000000000000e+00
	0.000000000000000e+00
	2.700000000000001e-01
	4.999967029021140e+00
	4.999983514385564e+00
	4.999983514510568e+00
	4.999997294053749e+00
	4.999998646901867e+00
	4.999998647026874e+00
	5.000000000000000e+00
	5.000000000000000e+00
	5.000000000000000e+00
	-1.427082004776259e-06
	2.059955395793393e-02
	0.000000000000000e+00
	4.730000000000000e+00
	4.207201566714502e-03
	1.639092530922426e-02
	-2.059812687593876e-02

 28	2.800000000000001e-01
	5.000000000000000e+00
	0.000000000000000e+00
	0.000000000000000e+00
	2.800000000000001e-01
	4.999966576697734e+00
	4.999983288223861e+00
	4.999983288348864e+00
	4.999997279864330e+00
	4.999998639807156e+00
	4.999998639932164e+00
	5.000000000000000e+00
	5.000000000000000e+00
	5.000000000000000e+00
	-1.445742517883208e-06
	2.052827180218003e-02
	0.000000000000000e+00
	4.720000000000000e+00
	4.188965120306420e-03
	1.633786093952949e-02
	-2.052682605983591e-02

 29	2.900000000000001e-01
	5.000000000000000e+00
	0.000000000000000e+00
	0.000000000000000e+00
	2.900000000000001e-01
	4.999966119721750e+00
	4.999983059735869e+00
	4.999983059860872e+00
	4.999997265809363e+00
	4.999998632779674e+00
	4.999998632904680e+00
	5.000000000000000e+00
	5.000000000000000e+00
	5.000000000000000e+00
	-1.464583755828031e-06
	2.045703067863417e-02
	0.000000000000000e+00
	4.710000000000000e+00
	4.170752394429655e-03
	1.628481370062218e-02
	-2.045556609505184e-02

 30	3.000000000000001e-01
	5.000000000000000e+00
	0.000000000000000e+00
	0.000000000000000e+00
	3.000000000000001e-01
	4.999965658067784e+00
	4.999982828908886e+00
	4.999982829033890e+00
	4.999997251889970e+00
	4.999998625819977e+00
	4.999998625944984e+00
	5.000000000000000e+00
	5.000000000000000e+00
	5.000000000000000e+00
	-1.483606690319550e-06
	2.038583071348973e-02
	0.000000000000000e+00
	4.700000000000000e+00
	4.152563466504944e-03
	1.623178364036448e-02
	-2.038434710686943e-02

 31	3.100000000000001e-01
	5.000000000000000e+00
	0.000000000000000e+00
	0.000000000000000e+00
	3.100000000000001e-01
	4.999965191710605e+00
	4.999982595730296e+00
	4.999982595855300e+00
	4.999997238107249e+00
	4.999998618928617e+00
	4.999998619053624e+00
	5.000000000000000e+00
	5.000000000000000e+00
	5.000000000000000e+00
	-1.502812286183208e-06
	2.031467203345070e-02
	0.000000000000000e+00
	4.690000000000000e+00
	4.134398414748830e-03
	1.617877080627750e-02
	-2.031316922102633e-02

 32	3.200000000000001e-01
	5.000000000000000e+00
	0.000000000000000e+00
	0.000000000000000e+00
	3.200000000000001e-01
	4.999964720625167e+00
	4.999982360187577e+00
	4.999982360312581e+00
	4.999997224462274e+00
	4.999998612106129e+00
	4.999998612231137e+00
	5.000000000000000e+00
	5.000000000000000e+00
	5.000000000000000e+00
	-1.522201502776599e-06
	2.024355476574358e-02
	0.000000000000000e+00
	4.680000000000000e+00
	4.116257316468364e-03
	1.612577524792869e-02
	-2.024203256439705e-02

 33	3.300000000000001e-01
	5.000000000000000e+00
	0.000000000000000e+00
	0.000000000000000e+00
	3.300000000000001e-01
	4.999964244786604e+00
	4.999982122268296e+00
	4.999982122393299e+00
	4.999997210956102e+00
	4.999998605353043e+00
	4.999998605478050e+00
	5.000000000000000e+00
	5.000000000000000e+00
	5.000000000000000e+00
	-1.541775292213110e-06
	2.017247903812941e-02
	0.000000000000000e+00
	4.670000000000000e+00
	4.098140249311655e-03
	1.607279701363495e-02
	-2.017093726294661e-02

 34	3.400000000000001e-01
	5.000000000000000e+00
	0.000000000000000e+00
	0.000000000000000e+00
	3.400000000000001e-01
	4.999963764170249e+00
	4.999981881960119e+00
	4.999981882085122e+00
	4.999997197589768e+00
	4.999998598669876e+00
	4.999998598794884e+00
	5.000000000000000e+00
	5.000000000000000e+00
	5.000000000000000e+00
	-1.561534599778258e-06
	2.010144497891563e-02
	0.000000000000000e+00
	4.660000000000000e+00
	4.080047291381561e-03
	1.601983615307745e-02
	-2.009988344445901e-02

 35	3.500000000000001e-01
	5.000000000000000e+00
	0.000000000000000e+00
	0.000000000000000e+00
	3.500000000000001e-01
	4.999963278751622e+00
	4.999981639250805e+00
	4.999981639375809e+00
	4.999997184364292e+00
	4.999998592057138e+00
	4.999998592182145e+00
	5.000000000000000e+00
	5.000000000000000e+00
	5.000000000000000e+00
	-1.581480363860299e-06
	2.003045271696815e-02
	0.000000000000000e+00
	4.649999999999999e+00
	4.061978520439880e-03
	1.596689271650575e-02
	-2.002887123694563e-02

 36	3.600000000000002e-01
	5.000000000000000e+00
	0.000000000000000e+00
	0.000000000000000e+00
	3.600000000000002e-01
	4.999962788506462e+00
	4.999981394128225e+00
	4.999981394253229e+00
	4.999997171280666e+00
	4.999998585515325e+00
	4.999998585640332e+00
	5.000000000000000e+00
	5.000000000000000e+00
	5.000000000000000e+00
	-1.601613515339606e-06
	1.995950238172337e-02
	0.000000000000000e+00
	4.640000000000000e+00
	4.043934014021033e-03
	1.591396675416945e-02
	-1.995790076819048e-02

 37	3.700000000000002e-01
	5.000000000000000e+00
	0.000000000000000e+00
	0.000000000000000e+00
	3.700000000000002e-01
	4.999962293410704e+00
	4.999981146580346e+00
	4.999981146705350e+00
	4.999997158339872e+00
	4.999998579044928e+00
	4.999998579169935e+00
	5.000000000000000e+00
	5.000000000000000e+00
	5.000000000000000e+00
	-1.621934977311112e-06
	1.988859410320010e-02
	0.000000000000000e+00
	4.630000000000000e+00
	4.025913850682628e-03
	1.586105831734130e-02
	-1.988697216802393e-02

 38	3.800000000000002e-01
	5.000000000000000e+00
	0.000000000000000e+00
	0.000000000000000e+00
	3.800000000000002e-01
	4.999961793440507e+00
	4.999980896595248e+00
	4.999980896720251e+00
	4.999997145542864e+00
	4.999998572646424e+00
	4.999998572771432e+00
	5.000000000000000e+00
	5.000000000000000e+00
	5.000000000000000e+00
	-1.642445665500647e-06
	1.981772801201190e-02
	0.000000000000000e+00
	4.620000000000000e+00
	4.007918108754893e-03
	1.580816745774882e-02
	-1.981608556650372e-02

 39	3.900000000000002e-01
	5.000000000000000e+00
	0.000000000000000e+00
	0.000000000000000e+00
	3.900000000000002e-01
	4.999961288572248e+00
	4.999980644161118e+00
	4.999980644286122e+00
	4.999997132890582e+00
	4.999998566320283e+00
	4.999998566445290e+00
	5.000000000000000e+00
	5.000000000000000e+00
	5.000000000000000e+00
	-1.663146487182465e-06
	1.974690423937905e-02
	0.000000000000000e+00
	4.609999999999999e+00
	3.989946865090133e-03
	1.575529422780164e-02
	-1.974524109289177e-02

 40	4.000000000000002e-01
	5.000000000000000e+00
	0.000000000000000e+00
	0.000000000000000e+00
	4.000000000000002e-01
	4.999960778782530e+00
	4.999980389266259e+00
	4.999980389391263e+00
	4.999997120383945e+00
	4.999998560066965e+00
	4.999998560191972e+00
	5.000000000000000e+00
	5.000000000000000e+00
	5.000000000000000e+00
	-1.684038341429051e-06
	1.967612291714085e-02
	0.000000000000000e+00
	4.600000000000000e+00
	3.972000199041759e-03
	1.570243867990939e-02
	-1.967443887895115e-02

 41	4.100000000000002e-01
	5.000000000000000e+00
	0.000000000000000e+00
	0.000000000000000e+00
	4.100000000000002e-01
	4.999960264048195e+00
	4.999980131899092e+00
	4.999980132024096e+00
	4.999997108023855e+00
	4.999998553886920e+00
	4.999998554011927e+00
	5.000000000000000e+00
	5.000000000000000e+00
	5.000000000000000e+00
	-1.705122118403346e-06
	1.960538417776774e-02
	0.000000000000000e+00
	4.590000000000000e+00
	3.954078188485255e-03
	1.564960086739120e-02
	-1.960367905587646e-02

 42	4.200000000000002e-01
	5.000000000000000e+00
	0.000000000000000e+00
	0.000000000000000e+00
	4.200000000000002e-01
	4.999959744346321e+00
	4.999979872048154e+00
	4.999979872173158e+00
	4.999997095811191e+00
	4.999998547780587e+00
	4.999998547905594e+00
	5.000000000000000e+00
	5.000000000000000e+00
	5.000000000000000e+00
	-1.726398699983256e-06
	1.953468815437373e-02
	0.000000000000000e+00
	4.580000000000000e+00
	3.936180911750853e-03
	1.559678084402094e-02
	-1.953296175577179e-02

 43	4.300000000000002e-01
	5.000000000000000e+00
	0.000000000000000e+00
	0.000000000000000e+00
	4.300000000000002e-01
	4.999959219654236e+00
	4.999979609702113e+00
	4.999979609827117e+00
	4.999997083746817e+00
	4.999998541748401e+00
	4.999998541873408e+00
	5.000000000000000e+00
	5.000000000000000e+00
	5.000000000000000e+00
	-1.747868958332233e-06
	1.946403498072858e-02
	0.000000000000000e+00
	4.569999999999999e+00
	3.918308447623531e-03
	1.554397866459567e-02
	-1.946228711221920e-02

 44	4.400000000000002e-01
	5.000000000000000e+00
	0.000000000000000e+00
	0.000000000000000e+00
	4.400000000000002e-01
	4.999958689949516e+00
	4.999979344849752e+00
	4.999979344974756e+00
	4.999997071831575e+00
	4.999998535790779e+00
	4.999998535915786e+00
	5.000000000000000e+00
	5.000000000000000e+00
	5.000000000000000e+00
	-1.769533756870723e-06
	1.939342479127042e-02
	0.000000000000000e+00
	4.560000000000000e+00
	3.900460874092460e-03
	1.549119438379876e-02
	-1.939165525789122e-02

 45	4.500000000000002e-01
	5.000000000000000e+00
	0.000000000000000e+00
	0.000000000000000e+00
	4.500000000000002e-01
	4.999958155210000e+00
	4.999979077479994e+00
	4.999979077604998e+00
	4.999997060066295e+00
	4.999998529908139e+00
	4.999998530033146e+00
	5.000000000000000e+00
	5.000000000000000e+00
	5.000000000000000e+00
	-1.791393948666342e-06
	1.932285772111805e-02
	0.000000000000000e+00
	4.550000000000000e+00
	3.882638270056304e-03
	1.543842805710938e-02
	-1.932106632716568e-02

 46	4.600000000000002e-01
	5.000000000000000e+00
	0.000000000000000e+00
	0.000000000000000e+00
	4.600000000000002e-01
	4.999957615413792e+00
	4.999978807581890e+00
	4.999978807706894e+00
	4.999997048451782e+00
	4.999998524100883e+00
	4.999998524225890e+00
	5.000000000000000e+00
	5.000000000000000e+00
	5.000000000000000e+00
	-1.813450377502468e-06
	1.925233390608335e-02
	0.000000000000000e+00
	4.540000000000000e+00
	3.864840714413731e-03
	1.538567974137095e-02
	-1.925052045578468e-02

 47	4.700000000000003e-01
	5.000000000000000e+00
	0.000000000000000e+00
	0.000000000000000e+00
	4.700000000000003e-01
	4.999957070539267e+00
	4.999978535144628e+00
	4.999978535269632e+00
	4.999997036988827e+00
	4.999998518369406e+00
	4.999998518494412e+00
	5.000000000000000e+00
	5.000000000000000e+00
	5.000000000000000e+00
	-1.835703876670869e-06
	1.918185348268418e-02
	0.000000000000000e+00
	4.529999999999999e+00
	3.847068286177091e-03
	1.533294949285846e-02
	-1.918001777903555e-02

 48	4.800000000000003e-01
	5.000000000000000e+00
	0.000000000000000e+00
	0.000000000000000e+00
	4.800000000000003e-01
	4.999956520565078e+00
	4.999978260157533e+00
	4.999978260282537e+00
	4.999997025678200e+00
	4.999998512714091e+00
	4.999998512839099e+00
	5.000000000000000e+00
	5.000000000000000e+00
	5.000000000000000e+00
	-1.858155269374162e-06
	1.911141658815679e-02
	0.000000000000000e+00
	4.520000000000000e+00
	3.829321063790303e-03
	1.528023736932482e-02
	-1.910955843311513e-02

 49	4.900000000000003e-01
	5.000000000000000e+00
	0.000000000000000e+00
	0.000000000000000e+00
	4.900000000000003e-01
	4.999955965470168e+00
	4.999977982610078e+00
	4.999977982735082e+00
	4.999997014520656e+00
	4.999998507135320e+00
	4.999998507260328e+00
	5.000000000000000e+00
	5.000000000000000e+00
	5.000000000000000e+00
	-1.880805367435179e-06
	1.904102336046853e-02
	0.000000000000000e+00
	4.510000000000000e+00
	3.811599127061527e-03
	1.522754342852295e-02
	-1.903914255558448e-02

 50	5.000000000000002e-01
	5.000000000000000e+00
	0.000000000000000e+00
	0.000000000000000e+00
	5.000000000000002e-01
	4.999955405233766e+00
	4.999977702491877e+00
	4.999977702616881e+00
	4.999997003516931e+00
	4.999998501633458e+00
	4.999998501758465e+00
	5.000000000000000e+00
	5.000000000000000e+00
	5.000000000000000e+00
	-1.903654972518209e-06
	1.897067393833089e-02
	0.000000000000000e+00
	4.500000000000000e+00
	3.793902554662054e-03
	1.517486772900156e-02
	-1.896877028366362e-02

 51	5.100000000000002e-01
	5.000000000000000e+00
	0.000000000000000e+00
	0.000000000000000e+00
	5.100000000000002e-01
	4.999954839835402e+00
	4.999977419792695e+00
	4.999977419917700e+00
	4.999996992667742e+00
	4.999998496208863e+00
	4.999998496333870e+00
	5.000000000000000e+00
	5.000000000000000e+00
	5.000000000000000e+00
	-1.926704874602447e-06
	1.890036846121199e-02
	0.000000000000000e+00
	4.490000000000000e+00
	3.776231426058985e-03
	1.512221033033256e-02
	-1.889844175639155e-02

 52	5.200000000000002e-01
	5.000000000000000e+00
	0.000000000000000e+00
	0.000000000000000e+00
	5.200000000000002e-01
	4.999954269254915e+00
	4.999977134502451e+00
	4.999977134627456e+00
	4.999996981973789e+00
	4.999998490861886e+00
	4.999998490986894e+00
	5.000000000000000e+00
	5.000000000000000e+00
	5.000000000000000e+00
	-1.949955852315055e-06
	1.883010706934977e-02
	0.000000000000000e+00
	4.480000000000000e+00
	3.758585821060478e-03
	1.506957129288367e-02
	-1.882815711394414e-02

 53	5.300000000000002e-01
	5.000000000000000e+00
	0.000000000000000e+00
	0.000000000000000e+00
	5.300000000000002e-01
	4.999953693472452e+00
	4.999976846611220e+00
	4.999976846736224e+00
	4.999996971435760e+00
	4.999998485592872e+00
	4.999998485717879e+00
	5.000000000000000e+00
	5.000000000000000e+00
	5.000000000000000e+00
	-1.973408671918087e-06
	1.875988990376503e-02
	0.000000000000000e+00
	4.470000000000000e+00
	3.740965818906261e-03
	1.501695067622677e-02
	-1.875791649513303e-02

 54	5.400000000000003e-01
	5.000000000000000e+00
	0.000000000000000e+00
	0.000000000000000e+00
	5.400000000000003e-01
	4.999953112468480e+00
	4.999976556109234e+00
	4.999976556234238e+00
	4.999996961054316e+00
	4.999998480402150e+00
	4.999998480527157e+00
	5.000000000000000e+00
	5.000000000000000e+00
	5.000000000000000e+00
	-1.997064088626876e-06
	1.868971710627438e-02
	0.000000000000000e+00
	4.460000000000000e+00
	3.723371499631867e-03
	1.496434854277595e-02
	-1.868772004240782e-02

 55	5.500000000000003e-01
	5.000000000000000e+00
	0.000000000000000e+00
	0.000000000000000e+00
	5.500000000000003e-01
	4.999952526223796e+00
	4.999976262986892e+00
	4.999976263111897e+00
	4.999996950830113e+00
	4.999998475290049e+00
	4.999998475415055e+00
	5.000000000000000e+00
	5.000000000000000e+00
	5.000000000000000e+00
	-2.020922844125916e-06
	1.861958881950351e-02
	0.000000000000000e+00
	4.449999999999999e+00
	3.705802943272829e-03
	1.491176495380842e-02
	-1.861756789708124e-02

 56	5.600000000000003e-01
	5.000000000000000e+00
	0.000000000000000e+00
	0.000000000000000e+00
	5.600000000000003e-01
	4.999951934719526e+00
	4.999975967234757e+00
	4.999975967359761e+00
	4.999996940763779e+00
	4.999998470256882e+00
	4.999998470381889e+00
	5.000000000000000e+00
	5.000000000000000e+00
	5.000000000000000e+00
	-2.044985668234189e-06
	1.854950518690051e-02
	0.000000000000000e+00
	4.440000000000000e+00
	3.688260229409934e-03
	1.485919997185192e-02
	-1.854746020126186e-02

 57	5.700000000000003e-01
	5.000000000000000e+00
	0.000000000000000e+00
	0.000000000000000e+00
	5.700000000000003e-01
	4.999951337937137e+00
	4.999975668843563e+00
	4.999975668968567e+00
	4.999996930855934e+00
	4.999998465302959e+00
	4.999998465427966e+00
	5.000000000000000e+00
	5.000000000000000e+00
	5.000000000000000e+00
	-2.069253277642291e-06
	1.847946635274911e-02
	0.000000000000000e+00
	4.430000000000000e+00
	3.670743438988211e-03
	1.480665366102585e-02
	-1.847739710001406e-02

 58	5.800000000000003e-01
	5.000000000000000e+00
	0.000000000000000e+00
	0.000000000000000e+00
	5.800000000000003e-01
	4.999950735858449e+00
	4.999975367804218e+00
	4.999975367929223e+00
	4.999996921107172e+00
	4.999998460428579e+00
	4.999998460553585e+00
	5.000000000000000e+00
	5.000000000000000e+00
	5.000000000000000e+00
	-2.093726375593241e-06
	1.840947246218231e-02
	0.000000000000000e+00
	4.420000000000000e+00
	3.653252651815819e-03
	1.475412608431270e-02
	-1.840737873612852e-02

 59	5.900000000000003e-01
	5.000000000000000e+00
	0.000000000000000e+00
	0.000000000000000e+00
	5.900000000000003e-01
	4.999950128465630e+00
	4.999975064107810e+00
	4.999975064232814e+00
	4.999996911518078e+00
	4.999998455634032e+00
	4.999998455759038e+00
	5.000000000000000e+00
	5.000000000000000e+00
	5.000000000000000e+00
	-2.118405652035138e-06
	1.833952366119574e-02
	0.000000000000000e+00
	4.410000000000000e+00