Title: ** sch_path:
Date: Sun Mar 13 18:05:17  2022
Plotname: DC transfer characteristic
Flags: real
No. Variables: 21
No. Points: 501
Variables:
	0	v-sweep	voltage
	1	b	voltage
	2	d5v0	voltage
	3	i(e1)	current
	4	g5v0	voltage
	5	m.xm1.msky130_fd_pr__nfet_g5v0d10v5#body	voltage
	6	m.xm1.msky130_fd_pr__nfet_g5v0d10v5#dbody	voltage
	7	m.xm1.msky130_fd_pr__nfet_g5v0d10v5#sbody	voltage
	8	m.xm2.msky130_fd_pr__nfet_g5v0d10v5#body	voltage
	9	m.xm2.msky130_fd_pr__nfet_g5v0d10v5#dbody	voltage
	10	m.xm2.msky130_fd_pr__nfet_g5v0d10v5#sbody	voltage
	11	net1	voltage
	12	net2	voltage
	13	s	voltage
	14	i(vb)	current
	15	i(vd)	current
	16	i(vg)	current
	17	vgs	voltage
	18	i(vn_long)	current
	19	i(vn_short)	current
	20	i(vs)	current
Values:
 0	0.000000000000000e+00
	0.000000000000000e+00
	5.000000000000000e+00
	0.000000000000000e+00
	0.000000000000000e+00
	2.449681046490372e-10
	2.476202931953095e-10
	1.224840523208661e-10
	1.024079166600577e-10
	1.763401992026095e-10
	5.120395832849865e-11
	5.000000000000000e+00
	5.000000000000000e+00
	0.000000000000000e+00
	0.000000000000000e+00
	-6.923528417246416e-11
	0.000000000000000e+00
	0.000000000000000e+00
	7.958078640513122e-12
	6.127720553195104e-11
	5.040135914023578e-11

 1	1.000000000000000e-02
	0.000000000000000e+00
	5.000000000000000e+00
	0.000000000000000e+00
	1.000000000000000e-02
	2.738854782090112e-10
	2.620789799749334e-10
	1.369427391004227e-10
	1.027487583151796e-10
	1.765106200301661e-10
	5.137437915605460e-11
	5.000000000000000e+00
	5.000000000000000e+00
	0.000000000000000e+00
	0.000000000000000e+00
	-8.105871529551223e-11
	0.000000000000000e+00
	1.000000000000000e-02
	8.753886504564434e-12
	7.230482879094779e-11
	6.080745119423213e-11

 2	2.000000000000000e-02
	0.000000000000000e+00
	5.000000000000000e+00
	0.000000000000000e+00
	2.000000000000000e-02
	3.088657193076754e-10
	2.795691005238263e-10
	1.544328596492341e-10
	1.034202934615721e-10
	1.768463876033538e-10
	5.171014672924090e-11
	5.000000000000000e+00
	5.000000000000000e+00
	0.000000000000000e+00
	0.000000000000000e+00
	-9.504219633527100e-11
	0.000000000000000e+00
	2.000000000000000e-02
	9.322320693172514e-12
	8.571987564209849e-11
	7.335950446262304e-11

 3	3.000000000000000e-02
	0.000000000000000e+00
	5.000000000000000e+00
	0.000000000000000e+00
	3.000000000000000e-02
	3.511379574051291e-10
	3.007052195720225e-10
	1.755689786973316e-10
	1.044912341734989e-10
	1.773818579593037e-10
	5.224561708518841e-11
	5.000000000000000e+00
	5.000000000000000e+00
	0.000000000000000e+00
	0.000000000000000e+00
	-1.114131009671837e-10
	0.000000000000000e+00
	3.000000000000000e-02
	9.777068044058979e-12
	1.016360329231247e-10
	8.849568546615399e-11

 4	4.000000000000000e-02
	0.000000000000000e+00
	5.000000000000000e+00
	0.000000000000000e+00
	4.000000000000000e-02
	4.021812313838002e-10
	3.262268565607172e-10
	2.010906156859074e-10
	1.060417655386261e-10
	1.781571236418478e-10
	5.302088276772901e-11
	5.000000000000000e+00
	5.000000000000000e+00
	0.000000000000000e+00
	0.000000000000000e+00
	-1.318767317570746e-10
	0.000000000000000e+00
	4.000000000000000e-02
	1.080024958355352e-11
	1.210764821735211e-10
	1.067422262001243e-10

 5	5.000000000000000e-02
	0.000000000000000e+00
	5.000000000000000e+00
	0.000000000000000e+00
	5.000000000000000e-02
	4.637752918031790e-10
	3.570238867696333e-10
	2.318876458946799e-10
	1.081652755695735e-10
	1.792188786572948e-10
	5.408263778317118e-11
	5.000000000000000e+00
	5.000000000000000e+00
	0.000000000000000e+00
	0.000000000000000e+00
	-1.566604623803869e-10
	0.000000000000000e+00
	5.000000000000000e-02
	1.239186531165615e-11
	1.442685970687307e-10
	1.287310876526236e-10

 6	6.000000000000000e-02
	0.000000000000000e+00
	5.000000000000000e+00
	0.000000000000000e+00
	6.000000000000000e-02
	5.380617302579709e-10
	3.941671059960966e-10
	2.690308651209700e-10
	1.109705649824347e-10
	1.806215233636901e-10
	5.548528248956008e-11
	5.000000000000000e+00
	5.000000000000000e+00
	0.000000000000000e+00
	0.000000000000000e+00
	-1.861053533502854e-10
	0.000000000000000e+00
	6.000000000000000e-02
	1.375610736431554e-11
	1.723492459859699e-10
	1.552212648331529e-10

 7	7.000000000000001e-02
	0.000000000000000e+00
	5.000000000000000e+00
	0.000000000000000e+00
	7.000000000000001e-02
	6.276175355628458e-10
	4.389450086474096e-10
	3.138087677720742e-10
	1.145846575924253e-10
	1.824285696686399e-10
	5.729232879450170e-11
	5.000000000000000e+00
	5.000000000000000e+00
	0.000000000000000e+00
	0.000000000000000e+00
	-2.218030203948729e-10
	0.000000000000000e+00
	7.000000000000001e-02
	1.557509676786140e-11
	2.062279236270115e-10
	1.871244828996260e-10

 8	8.000000000000000e-02
	0.000000000000000e+00
	5.000000000000000e+00
	0.000000000000000e+00
	8.000000000000000e-02
	7.355436037420038e-10
	4.929080427356337e-10
	3.677718018600467e-10
	1.191563265404594e-10
	1.847144041425995e-10
	5.957816326845077e-11
	5.000000000000000e+00
	5.000000000000000e+00
	0.000000000000000e+00
	0.000000000000000e+00
	-2.646629582159221e-10
	0.000000000000000e+00
	8.000000000000000e-02
	1.784883352229372e-11
	2.468141246936284e-10
	2.255361745647962e-10

 9	9.000000000000000e-02
	0.000000000000000e+00
	5.000000000000000e+00
	0.000000000000000e+00
	9.000000000000000e-02
	8.655712388038183e-10
	5.579218602649085e-10
	4.327856193890182e-10
	1.248604472572551e-10
	1.875664645009257e-10
	6.243022362676383e-11
	5.000000000000000e+00
	5.000000000000000e+00
	0.000000000000000e+00
	0.000000000000000e+00
	-3.162767825415358e-10
	0.000000000000000e+00
	9.000000000000000e-02
	2.046363078989089e-11
	2.958131517516449e-10
	2.717727976918040e-10

 10	9.999999999999999e-02
	0.000000000000000e+00
	5.000000000000000e+00
	0.000000000000000e+00
	9.999999999999999e-02
	1.022190304647256e-09
	6.362313931846613e-10
	5.110951523084058e-10
	1.319032909020830e-10
	1.910878863232511e-10
	6.595164544907305e-11
	5.000000000000000e+00
	5.000000000000000e+00
	0.000000000000000e+00
	0.000000000000000e+00
	-3.785771696129814e-10
	0.000000000000000e+00
	9.999999999999999e-02
	2.398792275926098e-11
	3.545892468537204e-10
	3.274167614338110e-10

 11	1.100000000000000e-01
	0.000000000000000e+00
	5.000000000000000e+00
	0.000000000000000e+00
	1.100000000000000e-01
	1.210803426948411e-09
	7.305379543328708e-10
	6.054017134561754e-10
	1.405288857132378e-10
	1.954006837287201e-10
	7.026444285452219e-11
	5.000000000000000e+00
	5.000000000000000e+00
	0.000000000000000e+00
	0.000000000000000e+00
	-4.533831088338047e-10
	0.000000000000000e+00
	1.100000000000000e-01
	2.796696207951754e-11
	4.254161467542872e-10
	3.943704815068250e-10

 12	1.200000000000000e-01
	0.000000000000000e+00
	5.000000000000000e+00
	0.000000000000000e+00
	1.200000000000000e-01
	1.437911542042010e-09
	8.440920118768188e-10
	7.189557709995937e-10
	1.510265999014097e-10
	2.006495408226741e-10
	7.551329994845200e-11
	5.000000000000000e+00
	5.000000000000000e+00
	0.000000000000000e+00
	0.000000000000000e+00
	-5.434230843093246e-10
	0.000000000000000e+00
	1.200000000000000e-01
	3.285549610154703e-11
	5.105675882077776e-10
	4.749213957340422e-10

 13	1.300000000000000e-01
	0.000000000000000e+00
	5.000000000000000e+00
	0.000000000000000e+00
	1.300000000000000e-01
	1.711337164472983e-09
	9.808048230888725e-10
	8.556685822110098e-10
	1.637401377534031e-10
	2.070063097485111e-10
	8.187006887425962e-11
	5.000000000000000e+00
	5.000000000000000e+00
	0.000000000000000e+00
	0.000000000000000e+00
	-6.516529538203031e-10
	0.000000000000000e+00
	1.300000000000000e-01
	3.853983798762783e-11
	6.131131158326752e-10
	5.718201452302607e-10

 14	1.400000000000000e-01
	0.000000000000000e+00
	5.000000000000000e+00
	0.000000000000000e+00
	1.400000000000000e-01
	2.040493038134123e-09
	1.145382759915311e-09
	1.020246519036680e-09
	1.790781893554692e-10
	2.146753355493514e-10
	8.953909467506454e-11
	5.000000000000000e+00
	5.000000000000000e+00
	0.000000000000000e+00
	0.000000000000000e+00
	-7.819380698492751e-10
	0.000000000000000e+00
	1.400000000000000e-01
	4.558842192636803e-11
	7.363496479229070e-10
	6.883745781215100e-10

 15	1.500000000000000e-01
	0.000000000000000e+00
	5.000000000000000e+00
	0.000000000000000e+00
	1.500000000000000e-01
	2.436705401304840e-09
	1.343488941495695e-09
	1.218352700616140e-09
	1.975270324784444e-10
	2.238997571106072e-10
	9.876351623627774e-11
	5.000000000000000e+00
	5.000000000000000e+00
	0.000000000000000e+00
	0.000000000000000e+00
	-9.388259059051052e-10
	0.000000000000000e+00
	1.500000000000000e-01
	5.388756108004600e-11
	8.849383448250592e-10
	8.285627789028886e-10

 16	1.600000000000000e-01
	0.000000000000000e+00
	5.000000000000000e+00
	0.000000000000000e+00
	1.600000000000000e-01
	2.913602960622972e-09
	1.581937721148773e-09
	1.456801480268106e-09
	2.196654524397127e-10
	2.349689670909632e-10
	1.098327262165826e-10
	5.000000000000000e+00
	5.000000000000000e+00
	0.000000000000000e+00
	0.000000000000000e+00
	-1.127204996009823e-09
	0.000000000000000e+00
	1.600000000000000e-01
	6.366462912410498e-11
	1.063540366885718e-09
	9.971689764057284e-10

 17	1.700000000000000e-01
	0.000000000000000e+00
	5.000000000000000e+00
	0.000000000000000e+00
	1.700000000000000e-01
	3.487584935508435e-09
	1.868928708584299e-09
	1.743792467702293e-09
	2.461824228255883e-10
	2.482274522835678e-10
	1.230912114091260e-10
	5.000000000000000e+00
	5.000000000000000e+00
	0.000000000000000e+00
	0.000000000000000e+00
	-1.354237610939890e-09
	0.000000000000000e+00
	1.700000000000000e-01
	7.560174708487466e-11
	1.278635863855015e-09
	1.199946971375318e-09

 18	1.800000000000000e-01
	0.000000000000000e+00
	5.000000000000000e+00
	0.000000000000000e+00
	1.800000000000000e-01
	4.178384242229277e-09
	2.214328361936048e-09
	2.089192121052430e-09
	2.778980787393143e-10
	2.640852802400323e-10
	1.389490393655172e-10
	5.000000000000000e+00
	5.000000000000000e+00
	0.000000000000000e+00
	0.000000000000000e+00
	-1.626744960958604e-09
	0.000000000000000e+00
	1.800000000000000e-01
	8.958522812463343e-11
	1.537159732833970e-09
	1.443816664789360e-09

 19	1.900000000000000e-01
	0.000000000000000e+00
	5.000000000000000e+00
	0.000000000000000e+00
	1.900000000000000e-01
	5.009745154385980e-09
	2.630008818003962e-09
	2.504872577118406e-09
	3.157886171539088e-10
	2.830305494468534e-10
	1.578943085722509e-10
	5.000000000000000e+00
	5.000000000000000e+00
	0.000000000000000e+00
	0.000000000000000e+00
	-1.955186235136352e-09
	0.000000000000000e+00
	1.900000000000000e-01
	1.065245669451542e-10
	1.848661668191198e-09
	1.737100400919313e-09

 20	2.000000000000000e-01
	0.000000000000000e+00
	5.000000000000000e+00
	0.000000000000000e+00
	2.000000000000000e-01
	6.010238711089204e-09
	3.130255596343014e-09
	3.005119355455124e-09
	3.610158797512331e-10
	3.056441807449474e-10
	1.805079398702403e-10
	5.000000000000000e+00
	5.000000000000000e+00
	0.000000000000000e+00
	0.000000000000000e+00
	-2.349565875192638e-09
	0.000000000000000e+00
	2.000000000000000e-01
	1.264197635464370e-10
	2.223146111646201e-09
	2.089807202009423e-09

 21	2.100000000000000e-01
	0.000000000000000e+00
	5.000000000000000e+00
	0.000000000000000e+00
	2.100000000000000e-01
	7.214243864240219e-09
	3.732258172903406e-09
	3.607121932012707e-09
	4.149625159774633e-10
	3.326174988573847e-10
	2.074812579825529e-10
	5.000000000000000e+00
	5.000000000000000e+00
	0.000000000000000e+00
	0.000000000000000e+00
	-2.823981049004942e-09
	0.000000000000000e+00
	2.100000000000000e-01
	1.501803126302548e-10
	2.673800736374687e-09
	2.513974605462042e-09

 22	2.200000000000001e-01
	0.000000000000000e+00
	5.000000000000000e+00
	0.000000000000000e+00
	2.200000000000001e-01
	8.663128051287425e-09
	4.456700266408818e-09
	4.331564025514741e-09
	4.792737930403855e-10
	3.647731373880378e-10
	2.396368965130573e-10
	5.000000000000000e+00
	5.000000000000000e+00
	0.000000000000000e+00
	0.000000000000000e+00
	-3.395143721718341e-09
	0.000000000000000e+00
	2.200000000000001e-01
	1.787157088983804e-10
	3.216428012819961e-09
	3.024079784842485e-09

 23	2.300000000000001e-01
	0.000000000000000e+00
	5.000000000000000e+00
	0.000000000000000e+00
	2.300000000000001e-01
	1.040666772030651e-08
	5.328470100896474e-09
	5.203333859998330e-09
	5.559073202795219e-10
	4.030899010066432e-10
	2.779536601314856e-10
	5.000000000000000e+00
	5.000000000000000e+00
	0.000000000000000e+00
	0.000000000000000e+00
	-4.081016413692851e-09
	0.000000000000000e+00
	2.300000000000001e-01
	2.122533260262571e-10
	3.868763087666593e-09
	3.637534001930643e-09

 24	2.400000000000001e-01
	0.000000000000000e+00
	5.000000000000000e+00
	0.000000000000000e+00
	2.400000000000001e-01
	1.250475756932575e-08
	6.377515025379754e-09
	6.252378784476716e-09
	6.471921944636415e-10
	4.487323380975561e-10
	3.235960972221874e-10
	5.000000000000000e+00
	5.000000000000000e+00
	0.000000000000000e+00
	0.000000000000000e+00
	-4.906269168714061e-09
	0.000000000000000e+00
	2.400000000000001e-01
	2.523847797419876e-10
	4.653884388972074e-09
	4.375277284395584e-09

 25	2.500000000000001e-01
	0.000000000000000e+00
	5.000000000000000e+00
	0.000000000000000e+00
	2.500000000000001e-01
	1.502946716168599e-08
	7.639869821528175e-09
	7.514733580619245e-09
	7.558993572758996e-10
	5.030859195023194e-10
	3.779496786266994e-10
	5.000000000000000e+00
	5.000000000000000e+00
	0.000000000000000e+00
	0.000000000000000e+00
	-5.898755262023769e-09
	0.000000000000000e+00
	2.500000000000001e-01
	2.999058779096231e-10
	5.598849384114146e-09
	5.262493645653833e-09

 26	2.600000000000001e-01
	0.000000000000000e+00
	5.000000000000000e+00
	0.000000000000000e+00
	2.600000000000001e-01
	1.806751550024216e-08
	9.158893990768122e-09
	9.033757749852108e-09
	8.853252954899615e-10
	5.677988886077243e-10
	4.426626477318051e-10
	5.000000000000000e+00
	5.000000000000000e+00
	0.000000000000000e+00
	0.000000000000000e+00
	-7.092580744938459e-09
	0.000000000000000e+00
	2.600000000000001e-01
	3.567492967704311e-10
	6.735831448168028e-09
	6.329471282824544e-09

 27	2.700000000000001e-01
	0.000000000000000e+00
	5.000000000000000e+00
	0.000000000000000e+00
	2.700000000000001e-01
	2.172324846657255e-08
	1.098676047388742e-08
	1.086162423296288e-08
	1.039391618593627e-09
	6.448320501576212e-10
	5.196958092813457e-10
	5.000000000000000e+00
	5.000000000000000e+00
	0.000000000000000e+00
	0.000000000000000e+00
	-8.528218131687026e-09
	0.000000000000000e+00
	2.700000000000001e-01
	4.242792783770710e-10
	8.103938853309955e-09
	7.612637137090668e-09

 28	2.800000000000001e-01
	0.000000000000000e+00
	5.000000000000000e+00
	0.000000000000000e+00
	2.800000000000001e-01
	2.612222127117475e-08
	1.318624687613329e-08
	1.306111063519849e-08
	1.222763530237592e-09
	7.365180059773000e-10
	6.113817651006006e-10
	5.000000000000000e+00
	5.000000000000000e+00
	0.000000000000000e+00
	0.000000000000000e+00
	-1.025455276248977e-08
	0.000000000000000e+00
	2.800000000000001e-01
	5.044284989708103e-10
	9.750124263518956e-09
	9.155801155116024e-09

 29	2.900000000000001e-01
	0.000000000000000e+00
	5.000000000000000e+00
	0.000000000000000e+00
	2.900000000000001e-01
	3.141550879076138e-08
	1.583289063586016e-08
	1.570775439491301e-08
	1.440990783866272e-09
	8.456316327888985e-10
	7.204953919116943e-10
	5.000000000000000e+00
	5.000000000000000e+00
	0.000000000000000e+00
	0.000000000000000e+00
	-1.233104285347508e-08
	0.000000000000000e+00
	2.900000000000001e-01
	5.999254426569678e-10
	1.173111741081811e-08
	1.101165274845499e-08

 30	3.000000000000001e-01
	0.000000000000000e+00
	5.000000000000000e+00
	0.000000000000000e+00
	3.000000000000001e-01
	3.778489159180664e-08
	1.901758203630282e-08
	1.889244579534082e-08
	1.700675397020166e-09
	9.754739393625830e-10
	8.503376984847784e-10
	5.000000000000000e+00
	5.000000000000000e+00
	0.000000000000000e+00
	0.000000000000000e+00
	-1.482783318351721e-08
	0.000000000000000e+00
	3.000000000000001e-01
	7.133849067031406e-10
	1.411444827681407e-08
	1.324356055237541e-08

 31	3.100000000000001e-01
	0.000000000000000e+00
	5.000000000000000e+00
	0.000000000000000e+00
	3.100000000000001e-01
	4.544909541247797e-08
	2.284968394654227e-08
	2.272454770556238e-08
	2.009671214449794e-09
	1.129971848073515e-09
	1.004835607194996e-09
	5.000000000000000e+00
	5.000000000000000e+00
	0.000000000000000e+00
	0.000000000000000e+00
	-1.783064362825826e-08
	0.000000000000000e+00
	3.100000000000001e-01
	8.484448699164204e-10
	1.698219875834184e-08
	1.592773693166061e-08

 32	3.200000000000001e-01
	0.000000000000000e+00
	5.000000000000000e+00
	0.000000000000000e+00
	3.200000000000001e-01
	5.467129790692759e-08
	2.746078519365130e-08
	2.733564895264991e-08
	2.377321382893205e-09
	1.313796932290601e-09
	1.188660691411232e-09
	5.000000000000000e+00
	5.000000000000000e+00
	0.000000000000000e+00
	0.000000000000000e+00
	-2.144258814951172e-08
	0.000000000000000e+00
	3.200000000000001e-01
	1.009311745292507e-09
	2.043327640421921e-08
	1.915584111689154e-08

 33	3.300000000000001e-01
	0.000000000000000e+00
	5.000000000000000e+00
	0.000000000000000e+00
	3.300000000000001e-01
	6.576815975622623e-08
	3.300921611816131e-08
	3.288407987713402e-08
	2.814740960989521e-09
	1.532506721333264e-09
	1.407370480452883e-09
	5.000000000000000e+00
	5.000000000000000e+00
	0.000000000000000e+00
	0.000000000000000e+00
	-2.578622115834150e-08
	0.000000000000000e+00
	3.300000000000001e-01
	1.200191945827100e-09
	2.458602921251440e-08
	2.303810979811403e-08

 34	3.400000000000001e-01
	0.000000000000000e+00
	5.000000000000000e+00
	0.000000000000000e+00
	3.400000000000001e-01
	7.912068929608798e-08
	3.968548088792456e-08
	3.956034464686613e-08
	3.335153273410643e-09
	1.792712877537287e-09
	1.667576636655702e-09
	5.000000000000000e+00
	5.000000000000000e+00
	0.000000000000000e+00
	0.000000000000000e+00
	-3.101024503848748e-08
	0.000000000000000e+00
	3.400000000000001e-01
	1.427792994945776e-09
	2.958245204354171e-08
	2.770712196374622e-08

 35	3.500000000000001e-01
	0.000000000000000e+00
	5.000000000000000e+00
	0.000000000000000e+00
	3.500000000000001e-01
	9.518731232083161e-08
	4.771879240009466e-08
	4.759365615899876e-08
	3.954290273311707e-09
	2.102281377480040e-09
	1.977145136597024e-09
	5.000000000000000e+00
	5.000000000000000e+00
	0.000000000000000e+00
	0.000000000000000e+00
	-3.729280706465943e-08
	0.000000000000000e+00
	3.500000000000001e-01
	1.698367668723222e-09
	3.559443939593621e-08
	3.332232634530149e-08

 36	3.600000000000002e-01
	0.000000000000000e+00
	5.000000000000000e+00
	0.000000000000000e+00
	3.600000000000002e-01
	1.145195938060513e-07
	5.738493314246182e-08
	5.725979690132082e-08
	4.690869155922706e-09
	2.470570818776286e-09
	2.345434577891566e-09
	5.000000000000000e+00
	5.000000000000000e+00
	0.000000000000000e+00
	0.000000000000000e+00
	-4.484877536015119e-08
	0.000000000000000e+00
	3.600000000000002e-01
	2.020101419475395e-09
	4.282867394067580e-08
	4.007548574340498e-08

 37	3.700000000000002e-01
	0.000000000000000e+00
	5.000000000000000e+00
	0.000000000000000e+00
	3.700000000000002e-01
	1.377811484142457e-07
	6.901571044626697e-08
	6.889057420507171e-08
	5.567159833511589e-09
	2.908716157559718e-09
	2.783579916672972e-09
	5.000000000000000e+00
	5.000000000000000e+00
	0.000000000000000e+00
	0.000000000000000e+00
	-5.393621904659085e-08
	0.000000000000000e+00
	3.700000000000002e-01
	2.403112375759520e-09
	5.153310667083133e-08
	4.819722362248478e-08

 38	3.800000000000002e-01
	0.000000000000000e+00
	5.000000000000000e+00
	0.000000000000000e+00
	3.800000000000002e-01
	1.657703847901819e-07
	8.301032863388370e-08
	8.288519239262313e-08
	6.609660717833133e-09
	3.429966599707393e-09
	3.304830358818236e-09
	5.000000000000000e+00
	5.000000000000000e+00
	0.000000000000000e+00
	0.000000000000000e+00
	-6.486493475676980e-08
	0.000000000000000e+00
	3.800000000000002e-01
	2.858200787159149e-09
	6.200673396961065e-08
	5.796489570620678e-08

 39	3.900000000000002e-01
	0.000000000000000e+00
	5.000000000000000e+00
	0.000000000000000e+00
	3.900000000000002e-01
	1.994478583292257e-07
	9.984906540298283e-08
	9.972392916164371e-08
	7.849903656855717e-09
	4.050088069203104e-09
	3.924951828311078e-09
	5.000000000000000e+00
	5.000000000000000e+00
	0.000000000000000e+00
	0.000000000000000e+00
	-7.800883849995444e-08
	0.000000000000000e+00
	3.900000000000002e-01
	3.400032255740371e-09
	7.460880624421407e-08
	6.971205410644530e-08

 40	4.000000000000002e-01
	0.000000000000000e+00
	5.000000000000000e+00
	0.000000000000000e+00
	4.000000000000002e-01
	2.399691624940057e-07
	1.201097174848641e-07
	1.199845812434305e-07
	9.325412956811524e-09
	4.787842719162469e-09
	4.662706478267032e-09
	5.000000000000000e+00
	5.000000000000000e+00
	0.000000000000000e+00
	0.000000000000000e+00
	-9.381665222463198e-08
	0.000000000000000e+00
	4.000000000000002e-01
	4.044522938784212e-09
	8.977212928584777e-08
	8.383982523577524e-08

 41	4.100000000000002e-01
	0.000000000000000e+00
	5.000000000000000e+00
	0.000000000000000e+00
	4.100000000000002e-01
	2.887244748053868e-07
	1.444873736399426e-07
	1.443622373983952e-07
	1.108084833337550e-08
	5.665560407422406e-09
	5.540424166522908e-09
	5.000000000000000e+00
	5.000000000000000e+00
	0.000000000000000e+00
	0.000000000000000e+00
	-1.128274789152783e-07
	0.000000000000000e+00
	4.100000000000002e-01
	4.811113285541069e-09
	1.080163656297373e-07
	1.008305871193513e-07

 42	4.200000000000002e-01
	0.000000000000000e+00
	5.000000000000000e+00
	0.000000000000000e+00
	4.200000000000002e-01
	3.473860961598070e-07
	1.738181843164162e-07
	1.736930480747320e-07
	1.316936755644072e-08
	6.709820018928774e-09
	6.584683778024447e-09
	5.000000000000000e+00
	5.000000000000000e+00
	0.000000000000000e+00
	0.000000000000000e+00
	-1.356913799099857e-07
	0.000000000000000e+00
	4.200000000000002e-01
	5.723336471419316e-09
	1.299680434385664e-07
	1.212644087847224e-07

 43	4.300000000000002e-01
	0.000000000000000e+00
	5.000000000000000e+00
	0.000000000000000e+00
	4.300000000000002e-01
	4.179655879276750e-07
	2.091079301994641e-07
	2.089827939576153e-07
	1.565425170301388e-08
	7.952262092184136e-09
	7.827125851274061e-09
	5.000000000000000e+00
	5.000000000000000e+00
	0.000000000000000e+00
	0.000000000000000e+00
	-1.631887016628752e-07
	0.000000000000000e+00
	4.300000000000002e-01
	6.808818397985306e-09
	1.563798832648899e-07
	1.458388065759663e-07

 44	4.400000000000002e-01
	0.000000000000000e+00
	5.000000000000000e+00
	0.000000000000000e+00
	4.400000000000002e-01
	5.028824283261857e-07
	2.515663503976533e-07
	2.514412141556065e-07
	1.861084458848931e-08
	9.430558534884706e-09
	9.305422293967796e-09
	5.000000000000000e+00
	5.000000000000000e+00
	0.000000000000000e+00
	0.000000000000000e+00
	-1.962569058377994e-07
	0.000000000000000e+00
	4.400000000000002e-01
	8.099959813989699e-09
	1.881569460238097e-07
	1.753924823497711e-07

 45	4.500000000000002e-01
	0.000000000000000e+00
	5.000000000000000e+00
	0.000000000000000e+00
	4.500000000000002e-01
	6.050464869636554e-07
	3.026483797151056e-07
	3.025232434728205e-07
	2.212886845238933e-08
	1.118957046679052e-08
	1.106443422586547e-08
	5.000000000000000e+00
	5.000000000000000e+00
	0.000000000000000e+00
	0.000000000000000e+00
	-2.360258122280356e-07
	0.000000000000000e+00
	4.500000000000002e-01
	9.636664799472783e-09
	2.263891474285629e-07
	2.109338398521261e-07

 46	4.600000000000002e-01
	0.000000000000000e+00
	5.000000000000000e+00
	0.000000000000000e+00
	4.600000000000002e-01
	7.279570647209493e-07
	3.641036685922095e-07
	3.639785323496377e-07
	2.631519076348410e-08
	1.328273162228531e-08
	1.315759538135058e-08
	5.000000000000000e+00
	5.000000000000000e+00
	0.000000000000000e+00
	0.000000000000000e+00
	-2.838511363734142e-07
	0.000000000000000e+00
	4.600000000000002e-01
	1.146509021054953e-08
	2.723860461628647e-07
	2.536752319682551e-07

 47	4.700000000000003e-01
	0.000000000000000e+00
	5.000000000000000e+00
	0.000000000000000e+00
	4.700000000000003e-01
	8.758217770604839e-07
	4.380360247601205e-07
	4.379108885172037e-07
	3.129713262657914e-08
	1.577370255377024e-08
	1.564856631282399e-08
	5.000000000000000e+00
	5.000000000000000e+00
	0.000000000000000e+00
	0.000000000000000e+00
	-3.413637159610516e-07
	0.000000000000000e+00
	4.700000000000003e-01
	1.364105628454126e-08
	3.277226596765104e-07
	3.050740773475198e-07

 48	4.800000000000003e-01
	0.000000000000000e+00
	5.000000000000000e+00
	0.000000000000000e+00
	4.800000000000003e-01
	1.053699185507827e-06
	5.269747289815590e-07
	5.268495927382274e-07
	3.722642840897165e-08
	1.873835044489200e-08
	1.861321420393204e-08
	5.000000000000000e+00
	5.000000000000000e+00
	0.000000000000000e+00
	0.000000000000000e+00
	-4.105239668206195e-07
	0.000000000000000e+00
	4.800000000000003e-01
	1.623106982151512e-08
	3.942928969991044e-07
	3.668822050664372e-07

 49	4.900000000000003e-01
	0.000000000000000e+00
	5.000000000000000e+00
	0.000000000000000e+00
	4.900000000000003e-01
	1.267669818527627e-06
	6.339600454887727e-07
	6.338349092449419e-07
	4.428396973421510e-08
	2.226712110742506e-08
	2.214198486644878e-08
	5.000000000000000e+00
	5.000000000000000e+00
	0.000000000000000e+00
	0.000000000000000e+00
	-4.936883897244115e-07
	0.000000000000000e+00
	4.900000000000003e-01
	1.931437054736307e-08
	4.743740191770485e-07
	4.412050459868582e-07

 50	5.000000000000002e-01
	0.000000000000000e+00
	5.000000000000000e+00
	0.000000000000000e+00
	5.000000000000002e-01
	1.525041083936964e-06
	7.626456781902100e-07
	7.625205419457789e-07
	5.268549602643736e-08
	2.646788425343064e-08
	2.634274801243492e-08
	5.000000000000000e+00
	5.000000000000000e+00
	0.000000000000000e+00
	0.000000000000000e+00
	-5.936864226896432e-07
	0.000000000000000e+00
	5.000000000000002e-01
	2.298429535585456e-08
	5.707021273337887e-07
	5.305725952267979e-07

 51	5.100000000000002e-01
	0.000000000000000e+00
	5.000000000000000e+00
	0.000000000000000e+00
	5.100000000000002e-01
	1.834592574655692e-06
	9.174214235456881e-07
	9.172962873005348e-07
	6.268842974385419e-08
	3.146935111201338e-08
	3.134421487099454e-08
	5.000000000000000e+00
	5.000000000000000e+00
	0.000000000000000e+00
	0.000000000000000e+00
	-7.139207127693226e-07
	0.000000000000000e+00
	5.100000000000002e-01
	2.735498583206208e-08
	6.865657269372605e-07
	6.380244278925720e-07

 52	5.200000000000002e-01
	0.000000000000000e+00
	5.000000000000000e+00
	0.000000000000000e+00
	5.200000000000002e-01
	2.206869420403136e-06
	1.103559846414736e-06
	1.103434710168714e-06
	7.460009910785159e-08
	3.742518579386243e-08
	3.730004955281604e-08
	5.000000000000000e+00
	5.000000000000000e+00
	0.000000000000000e+00
	0.000000000000000e+00
	-8.584748911744100e-07
	0.000000000000000e+00
	5.200000000000002e-01
	3.255979663663311e-08
	8.259150945377769e-07
	7.672114660216591e-07

 53	5.300000000000002e-01
	0.000000000000000e+00
	5.000000000000000e+00
	0.000000000000000e+00
	5.300000000000002e-01
	2.654532648268217e-06
	1.327391460341657e-06
	1.327266324094591e-06
	8.878764677851332e-08
	4.451895962901506e-08
	4.439382338793584e-08
	5.000000000000000e+00
	5.000000000000000e+00
	0.000000000000000e+00
	0.000000000000000e+00
	-1.032255454447295e-06
	0.000000000000000e+00
	5.300000000000002e-01
	3.876004939229460e-08
	9.934954050550004e-07
	9.225176740082882e-07

 54	5.400000000000003e-01
	0.000000000000000e+00
	5.000000000000000e+00
	0.000000000000000e+00
	5.400000000000003e-01
	3.192776985439651e-06
	1.596513628920616e-06
	1.596388492672295e-06
	1.056899923831895e-07
	5.297013243114080e-08
	5.284499619002250e-08
	5.000000000000000e+00
	5.000000000000000e+00
	0.000000000000000e+00
	0.000000000000000e+00
	-1.241149220732041e-06
	0.000000000000000e+00
	5.400000000000003e-01
	4.614776116795838e-08
	1.195001459564082e-06
	1.109205406429062e-06

 55	5.500000000000003e-01
	0.000000000000000e+00
	5.000000000000000e+00
	0.000000000000000e+00
	5.500000000000003e-01
	3.839828155370230e-06
	1.920039213877782e-06
	1.919914077627952e-06
	1.258323035772792e-07
	6.304128802793261e-08
	6.291615178676773e-08
	5.000000000000000e+00
	5.000000000000000e+00
	0.000000000000000e+00
	0.000000000000000e+00
	-1.492220121690480e-06
	0.000000000000000e+00
	5.500000000000003e-01
	5.495326149684843e-08
	1.437266860193631e-06
	1.333588746924306e-06

 56	5.600000000000003e-01
	0.000000000000000e+00
	5.000000000000000e+00
	0.000000000000000e+00
	5.600000000000003e-01
	4.617533450989389e-06
	2.308891861677598e-06
	2.308766725425954e-06
	1.498435386524577e-07
	7.504690556522017e-08
	7.492176932399977e-08
	5.000000000000000e+00
	5.000000000000000e+00
	0.000000000000000e+00
	0.000000000000000e+00
	-1.793940100469626e-06
	0.000000000000000e+00
	5.600000000000003e-01
	6.545258202095283e-08
	1.728487518448674e-06
	1.603239855141155e-06

 57	5.700000000000003e-01
	0.000000000000000e+00
	5.000000000000000e+00
	0.000000000000000e+00
	5.700000000000003e-01
	5.552061150157966e-06
	2.776155711250155e-06
	2.776030574996329e-06
	1.784777586003665e-07
	8.936401553881484e-08
	8.923887929752822e-08
	5.000000000000000e+00
	5.000000000000000e+00
	0.000000000000000e+00
	0.000000000000000e+00
	-2.156460823243833e-06
	0.000000000000000e+00
	5.700000000000003e-01
	7.797666512487922e-08
	2.078484158118954e-06
	1.927234067843180e-06

 58	5.800000000000003e-01
	0.000000000000000e+00
	5.000000000000000e+00
	0.000000000000000e+00
	5.800000000000003e-01
	6.674726056910480e-06
	3.337488164612318e-06
	3.337363028355873e-06
	2.126400735834881e-07
	1.064451730299464e-07
	1.063200367885808e-07
	5.000000000000000e+00
	5.000000000000000e+00
	0.000000000000000e+00
	0.000000000000000e+00
	-2.591940074125887e-06
	0.000000000000000e+00
	5.800000000000003e-01
	9.292307368014008e-08
	2.499017000445747e-06
	2.316440254341645e-06

 59	5.900000000000003e-01
	0.000000000000000e+00
	5.000000000000000e+00
	0.000000000000000e+00
	5.900000000000003e-01
	8.022959926270049e-06
	4.011605099275175e-06
	4.011479963015587e-06
	2.534182937343316e-07
	1.268342831048559e-07
	1.267091468633959e-07
	5.000000000000000e+00
	5.000000000000000e+00
	0.000000000000000e+00
	0.000000000000000e+00
	-3.114923742941755e-06
	0.000000000000000e+00
	5.900000000000003e-01
	1.107708840208943e-07
	3.004152858920861e-06