Title: **.subckt char_schem_pmos_vgs g1v8 d1v8 b
Date: Sun Sep 26 20:21:06  2021
Plotname: DC transfer characteristic
Flags: real
No. Variables: 50
No. Points: 181
Variables:
	0	v-sweep	voltage
	1		voltage
	2	@include[current]	capacitance
	3	i(@m.xm6.msky130_fd_pr__pfet_01v8[ib])	current dims=0
	4	i(@m.xm6.msky130_fd_pr__pfet_01v8[id])	current
	5	i(@m.xm6.msky130_fd_pr__pfet_01v8[ig])	current dims=0
	6	i(@m.xm6.msky130_fd_pr__pfet_01v8[is])	current dims=0
	7	i(@m.xm7.msky130_fd_pr__pfet_01v8_lvt[ib])	current dims=0
	8	i(@m.xm7.msky130_fd_pr__pfet_01v8_lvt[id])	current
	9	i(@m.xm7.msky130_fd_pr__pfet_01v8_lvt[ig])	current dims=0
	10	i(@m.xm7.msky130_fd_pr__pfet_01v8_lvt[is])	current dims=0
	11	i(@m.xm8.msky130_fd_pr__pfet_01v8[ib])	current dims=0
	12	i(@m.xm8.msky130_fd_pr__pfet_01v8[id])	current
	13	i(@m.xm8.msky130_fd_pr__pfet_01v8[ig])	current dims=0
	14	i(@m.xm8.msky130_fd_pr__pfet_01v8[is])	current dims=0
	15	i(@m.xm9.msky130_fd_pr__pfet_01v8_lvt[ib])	current dims=0
	16	i(@m.xm9.msky130_fd_pr__pfet_01v8_lvt[id])	current
	17	i(@m.xm9.msky130_fd_pr__pfet_01v8_lvt[ig])	current dims=0
	18	i(@m.xm9.msky130_fd_pr__pfet_01v8_lvt[is])	current dims=0
	19	b	voltage
	20	d1v8	voltage
	21	i(e1)	current
	22	g1v8	voltage
	23	m.xm6.msky130_fd_pr__pfet_01v8#body	voltage
	24	m.xm6.msky130_fd_pr__pfet_01v8#dbody	voltage
	25	m.xm6.msky130_fd_pr__pfet_01v8#sbody	voltage
	26	m.xm7.msky130_fd_pr__pfet_01v8_lvt#body	voltage
	27	m.xm7.msky130_fd_pr__pfet_01v8_lvt#dbody	voltage
	28	m.xm7.msky130_fd_pr__pfet_01v8_lvt#sbody	voltage
	29	m.xm8.msky130_fd_pr__pfet_01v8#body	voltage
	30	m.xm8.msky130_fd_pr__pfet_01v8#dbody	voltage
	31	m.xm8.msky130_fd_pr__pfet_01v8#sbody	voltage
	32	m.xm9.msky130_fd_pr__pfet_01v8_lvt#body	voltage
	33	m.xm9.msky130_fd_pr__pfet_01v8_lvt#dbody	voltage
	34	m.xm9.msky130_fd_pr__pfet_01v8_lvt#sbody	voltage
	35	net1	voltage
	36	net2	voltage
	37	net3	voltage
	38	net4	voltage
	39	s	voltage
	40	sky130_fd_pr__esd_nfet_05v0_nvt.pm3	voltage
	41	i(vb)	current
	42	i(vd)	current
	43	i(vg)	current
	44	vgs	voltage
	45	i(vp_long)	current
	46	i(vp_lvt_long)	current
	47	i(vp_lvt_short)	current
	48	i(vp_short)	current
	49	i(vs)	current
Values:
 0	0.000000000000000e+00
	0.000000000000000e+00
	0.000000000000000e+00
	0.000000000000000e+00
	9.761002917621323e-05
	0.000000000000000e+00
	0.000000000000000e+00
	0.000000000000000e+00
	2.969267439599197e-04
	0.000000000000000e+00
	0.000000000000000e+00
	0.000000000000000e+00
	6.719486903872837e-04
	0.000000000000000e+00
	0.000000000000000e+00
	0.000000000000000e+00
	1.833196774792330e-03
	0.000000000000000e+00
	0.000000000000000e+00
	1.800000000000000e+00
	0.000000000000000e+00
	0.000000000000000e+00
	0.000000000000000e+00
	1.799999999861874e+00
	1.799999999885790e+00
	1.799999999930937e+00
	1.799999999977199e+00
	1.799999999943572e+00
	1.799999999988599e+00
	1.799999997418992e+00
	1.799999998664349e+00
	1.799999998709495e+00
	1.799999999897804e+00
	1.799999999903876e+00
	1.799999999948900e+00
	1.800000000000000e+00
	1.800000000000000e+00
	1.800000000000000e+00
	1.800000000000000e+00
	1.800000000000000e+00
	0.000000000000000e+00
	-1.173722577463288e-10
	2.899682355687861e-03
	0.000000000000000e+00
	1.800000000000000e+00
	9.761002917940687e-05
	2.969267439709711e-04
	1.833196774811086e-03
	6.719486903747907e-04
	-2.899682238336254e-03

 1	1.000000000000000e-02
	0.000000000000000e+00
	0.000000000000000e+00
	0.000000000000000e+00
	9.522810642763080e-05
	0.000000000000000e+00
	0.000000000000000e+00
	0.000000000000000e+00
	2.927963230353416e-04
	0.000000000000000e+00
	0.000000000000000e+00
	0.000000000000000e+00
	6.584478197417604e-04
	0.000000000000000e+00
	0.000000000000000e+00
	0.000000000000000e+00
	1.817138231851171e-03
	0.000000000000000e+00
	0.000000000000000e+00
	1.800000000000000e+00
	0.000000000000000e+00
	0.000000000000000e+00
	1.000000000000000e-02
	1.799999999857939e+00
	1.799999999883822e+00
	1.799999999928970e+00
	1.799999999977174e+00
	1.799999999943560e+00
	1.799999999988587e+00
	1.799999997253572e+00
	1.799999998581639e+00
	1.799999998626786e+00
	1.799999999895506e+00
	1.799999999902727e+00
	1.799999999947752e+00
	1.800000000000000e+00
	1.800000000000000e+00
	1.800000000000000e+00
	1.800000000000000e+00
	1.800000000000000e+00
	0.000000000000000e+00
	-1.242393479761184e-10
	2.863611532014126e-03
	0.000000000000000e+00
	1.790000000000000e+00
	9.521528618705588e-05
	2.927980600730962e-04
	1.817191872113710e-03
	6.584061894088222e-04
	-2.863611407782685e-03

 2	2.000000000000000e-02
	0.000000000000000e+00
	0.000000000000000e+00
	0.000000000000000e+00
	9.287193346995399e-05
	0.000000000000000e+00
	0.000000000000000e+00
	0.000000000000000e+00
	2.886632107866374e-04
	0.000000000000000e+00
	0.000000000000000e+00
	0.000000000000000e+00
	6.450313862745192e-04
	0.000000000000000e+00
	0.000000000000000e+00
	0.000000000000000e+00
	1.800974004858526e-03
	0.000000000000000e+00
	0.000000000000000e+00
	1.800000000000000e+00
	0.000000000000000e+00
	0.000000000000000e+00
	2.000000000000000e-02
	1.799999999854022e+00
	1.799999999881864e+00
	1.799999999927011e+00
	1.799999999977146e+00
	1.799999999943546e+00
	1.799999999988573e+00
	1.799999997073770e+00
	1.799999998491738e+00
	1.799999998536884e+00
	1.799999999893173e+00
	1.799999999901560e+00
	1.799999999946585e+00
	1.800000000000000e+00
	1.800000000000000e+00
	1.800000000000000e+00
	1.800000000000000e+00
	1.800000000000000e+00
	0.000000000000000e+00
	-1.316825745667494e-10
	2.827540667072147e-03
	0.000000000000000e+00
	1.780000000000000e+00
	9.287193345386413e-05
	2.886632107816922e-04
	1.800974004858347e-03
	6.450313862771395e-04
	-2.827540535371043e-03

 3	3.000000000000000e-02
	0.000000000000000e+00
	0.000000000000000e+00
	0.000000000000000e+00
	9.054167473785509e-05
	0.000000000000000e+00
	0.000000000000000e+00
	0.000000000000000e+00
	2.845285862325588e-04
	0.000000000000000e+00
	0.000000000000000e+00
	0.000000000000000e+00
	6.317011793159865e-04
	0.000000000000000e+00
	0.000000000000000e+00
	0.000000000000000e+00
	1.784706511044346e-03
	0.000000000000000e+00
	0.000000000000000e+00
	1.800000000000000e+00
	0.000000000000000e+00
	0.000000000000000e+00
	3.000000000000000e-02
	1.799999999850121e+00
	1.799999999879913e+00
	1.799999999925061e+00
	1.799999999977118e+00
	1.799999999943532e+00
	1.799999999988559e+00
	1.799999996890332e+00
	1.799999998400019e+00
	1.799999998445166e+00
	1.799999999890834e+00
	1.799999999900391e+00
	1.799999999945416e+00
	1.800000000000000e+00
	1.800000000000000e+00
	1.800000000000000e+00
	1.800000000000000e+00
	1.800000000000000e+00
	0.000000000000000e+00
	-1.392707754677147e-10
	2.791478090601502e-03
	0.000000000000000e+00
	1.770000000000000e+00
	9.054167471589381e-05
	2.845285862349556e-04
	1.784706511031686e-03
	6.317011792873473e-04
	-2.791477951269883e-03

 4	4.000000000000000e-02
	0.000000000000000e+00
	0.000000000000000e+00
	0.000000000000000e+00
	8.823749352361334e-05
	0.000000000000000e+00
	0.000000000000000e+00
	0.000000000000000e+00
	2.803936344768072e-04
	0.000000000000000e+00
	0.000000000000000e+00
	0.000000000000000e+00
	6.184589858833929e-04
	0.000000000000000e+00
	0.000000000000000e+00
	0.000000000000000e+00
	1.768338256558927e-03
	0.000000000000000e+00
	0.000000000000000e+00
	1.800000000000000e+00
	0.000000000000000e+00
	0.000000000000000e+00
	4.000000000000000e-02
	1.799999999846249e+00
	1.799999999877977e+00
	1.799999999923125e+00
	1.799999999977088e+00
	1.799999999943517e+00
	1.799999999988544e+00
	1.799999996699671e+00
	1.799999998304689e+00
	1.799999998349835e+00
	1.799999999888480e+00
	1.799999999899214e+00
	1.799999999944239e+00
	1.800000000000000e+00
	1.800000000000000e+00
	1.800000000000000e+00
	1.800000000000000e+00
	1.800000000000000e+00
	0.000000000000000e+00
	-1.471474747605228e-10
	2.755428517590084e-03
	0.000000000000000e+00
	1.760000000000000e+00
	8.823749352870891e-05
	2.803936344548674e-04
	1.768338256539437e-03
	6.184589858904133e-04
	-2.755428370413426e-03

 5	5.000000000000000e-02
	0.000000000000000e+00
	0.000000000000000e+00
	0.000000000000000e+00
	8.595955251786216e-05
	0.000000000000000e+00
	0.000000000000000e+00
	0.000000000000000e+00
	2.762595454983019e-04
	0.000000000000000e+00
	0.000000000000000e+00
	0.000000000000000e+00
	6.053066012443762e-04
	0.000000000000000e+00
	0.000000000000000e+00
	0.000000000000000e+00
	1.751871817834936e-03
	0.000000000000000e+00
	0.000000000000000e+00
	1.800000000000000e+00
	0.000000000000000e+00
	0.000000000000000e+00
	5.000000000000000e-02
	1.799999999842416e+00
	1.799999999876061e+00
	1.799999999921208e+00
	1.799999999977056e+00
	1.799999999943501e+00
	1.799999999988528e+00
	1.799999996501815e+00
	1.799999998205761e+00
	1.799999998250907e+00
	1.799999999886115e+00
	1.799999999898032e+00
	1.799999999943056e+00
	1.800000000000000e+00
	1.800000000000000e+00
	1.800000000000000e+00
	1.800000000000000e+00
	1.800000000000000e+00
	0.000000000000000e+00
	-1.553109515994855e-10
	2.719397672406294e-03
	0.000000000000000e+00
	1.750000000000000e+00
	8.595955252843623e-05
	2.762595454939287e-04
	1.751871817837980e-03
	6.053066012441377e-04
	-2.719397517104483e-03

 6	6.000000000000000e-02
	0.000000000000000e+00
	0.000000000000000e+00
	0.000000000000000e+00
	8.370801368170564e-05
	0.000000000000000e+00
	0.000000000000000e+00
	0.000000000000000e+00
	2.721275130735192e-04
	0.000000000000000e+00
	0.000000000000000e+00
	0.000000000000000e+00
	5.922458264359168e-04
	0.000000000000000e+00
	0.000000000000000e+00
	0.000000000000000e+00
	1.735309844972341e-03
	0.000000000000000e+00
	0.000000000000000e+00
	1.800000000000000e+00
	0.000000000000000e+00
	0.000000000000000e+00
	6.000000000000000e-02
	1.799999999838630e+00
	1.799999999874168e+00
	1.799999999919315e+00
	1.799999999977023e+00
	1.799999999943485e+00
	1.799999999988512e+00
	1.799999996296814e+00
	1.799999998103260e+00
	1.799999998148406e+00
	1.799999999883739e+00
	1.799999999896843e+00
	1.799999999941868e+00
	1.800000000000000e+00
	1.800000000000000e+00
	1.800000000000000e+00
	1.800000000000000e+00
	1.800000000000000e+00
	0.000000000000000e+00
	-1.637587912495242e-10
	2.683391361922186e-03
	0.000000000000000e+00
	1.740000000000000e+00
	8.370801366908154e-05
	2.721275130781464e-04
	1.735309844974608e-03
	5.922458264109309e-04
	-2.683391198132767e-03

 7	7.000000000000001e-02
	0.000000000000000e+00
	0.000000000000000e+00
	0.000000000000000e+00
	8.148303823162474e-05
	0.000000000000000e+00
	0.000000000000000e+00
	0.000000000000000e+00
	2.679987336560102e-04
	0.000000000000000e+00
	0.000000000000000e+00
	0.000000000000000e+00
	5.792784679492136e-04
	0.000000000000000e+00
	0.000000000000000e+00
	0.000000000000000e+00
	1.718655061350340e-03
	0.000000000000000e+00
	0.000000000000000e+00
	1.800000000000000e+00
	0.000000000000000e+00
	0.000000000000000e+00
	7.000000000000001e-02
	1.799999999834899e+00
	1.799999999872302e+00
	1.799999999917450e+00
	1.799999999976988e+00
	1.799999999943467e+00
	1.799999999988494e+00
	1.799999996084746e+00
	1.799999997997226e+00
	1.799999998042373e+00
	1.799999999881353e+00
	1.799999999895650e+00
	1.799999999940675e+00
	1.800000000000000e+00
	1.800000000000000e+00
	1.800000000000000e+00
	1.800000000000000e+00
	1.800000000000000e+00
	0.000000000000000e+00
	-1.724875589581565e-10
	2.647415473674648e-03
	0.000000000000000e+00
	1.730000000000000e+00
	8.148303821542413e-05
	2.679987336406953e-04
	1.718655061338836e-03
	5.792784679670149e-04
	-2.647415301161971e-03

 8	8.000000000000000e-02
	0.000000000000000e+00
	0.000000000000000e+00
	0.000000000000000e+00
	7.928478662579084e-05
	0.000000000000000e+00
	0.000000000000000e+00
	0.000000000000000e+00
	2.638744052409176e-04
	0.000000000000000e+00
	0.000000000000000e+00
	0.000000000000000e+00
	5.664063374081769e-04
	0.000000000000000e+00
	0.000000000000000e+00
	0.000000000000000e+00
	1.701910263149077e-03
	0.000000000000000e+00
	0.000000000000000e+00
	1.800000000000000e+00
	0.000000000000000e+00
	0.000000000000000e+00
	8.000000000000000e-02
	1.799999999831235e+00
	1.799999999870470e+00
	1.799999999915618e+00
	1.799999999976951e+00
	1.799999999943449e+00
	1.799999999988476e+00
	1.799999995865716e+00
	1.799999997887711e+00
	1.799999997932858e+00
	1.799999999878960e+00
	1.799999999894454e+00
	1.799999999939479e+00
	1.800000000000000e+00
	1.800000000000000e+00
	1.800000000000000e+00
	1.800000000000000e+00
	1.800000000000000e+00
	0.000000000000000e+00
	-1.814924391330131e-10
	2.611475973916381e-03
	0.000000000000000e+00
	1.720000000000000e+00
	7.928478662222460e-05
	2.638744052418929e-04
	1.701910263157913e-03
	5.664063374197781e-04
	-2.611475792441809e-03

 9	9.000000000000000e-02
	0.000000000000000e+00
	0.000000000000000e+00
	0.000000000000000e+00
	7.711341855205004e-05
	0.000000000000000e+00
	0.000000000000000e+00
	0.000000000000000e+00
	2.597557262169974e-04
	0.000000000000000e+00
	0.000000000000000e+00
	0.000000000000000e+00
	5.536312512421629e-04
	0.000000000000000e+00
	0.000000000000000e+00
	0.000000000000000e+00
	1.685078318779200e-03
	0.000000000000000e+00
	0.000000000000000e+00
	1.800000000000000e+00
	0.000000000000000e+00
	0.000000000000000e+00
	9.000000000000000e-02
	1.799999999827647e+00
	1.799999999868676e+00
	1.799999999913823e+00
	1.799999999976913e+00
	1.799999999943429e+00
	1.799999999988456e+00
	1.799999995639859e+00
	1.799999997774783e+00
	1.799999997819929e+00
	1.799999999876560e+00
	1.799999999893254e+00
	1.799999999938279e+00
	1.800000000000000e+00
	1.800000000000000e+00
	1.800000000000000e+00
	1.800000000000000e+00
	1.800000000000000e+00
	0.000000000000000e+00
	-1.907678667811830e-10
	2.575578905558176e-03
	0.000000000000000e+00
	1.710000000000000e+00
	7.711341855554110e-05
	2.597557262191685e-04
	1.685078318764965e-03
	5.536312512290920e-04
	-2.575578714768767e-03

 10	9.999999999999999e-02
	0.000000000000000e+00
	0.000000000000000e+00
	0.000000000000000e+00
	7.496909291785232e-05
	0.000000000000000e+00
	0.000000000000000e+00
	0.000000000000000e+00
	2.556438942087392e-04
	0.000000000000000e+00
	0.000000000000000e+00
	0.000000000000000e+00
	5.409550303536873e-04
	0.000000000000000e+00
	0.000000000000000e+00
	0.000000000000000e+00
	1.668162168217443e-03
	0.000000000000000e+00
	0.000000000000000e+00
	1.800000000000000e+00
	0.000000000000000e+00
	0.000000000000000e+00
	9.999999999999999e-02
	1.799999999824143e+00
	1.799999999866924e+00
	1.799999999912071e+00
	1.799999999976873e+00
	1.799999999943410e+00
	1.799999999988436e+00
	1.799999995407341e+00
	1.799999997658523e+00
	1.799999997703670e+00
	1.799999999874155e+00
	1.799999999892052e+00
	1.799999999937077e+00
	1.800000000000000e+00
	1.800000000000000e+00
	1.800000000000000e+00
	1.800000000000000e+00
	1.800000000000000e+00
	0.000000000000000e+00
	-2.003065352473854e-10
	2.539730386004173e-03
	0.000000000000000e+00
	1.700000000000000e+00
	7.496909290694020e-05
	2.556438941994088e-04
	1.668162168215304e-03
	5.409550303383526e-04
	-2.539730185660005e-03

 11	1.100000000000000e-01
	0.000000000000000e+00
	0.000000000000000e+00
	0.000000000000000e+00
	7.285196784246272e-05
	0.000000000000000e+00
	0.000000000000000e+00
	0.000000000000000e+00
	2.515401049111596e-04
	0.000000000000000e+00
	0.000000000000000e+00
	0.000000000000000e+00
	5.283794997819755e-04
	0.000000000000000e+00
	0.000000000000000e+00
	0.000000000000000e+00
	1.651164822246532e-03
	0.000000000000000e+00
	0.000000000000000e+00
	1.800000000000000e+00
	0.000000000000000e+00
	0.000000000000000e+00
	1.100000000000000e-01
	1.799999999820734e+00
	1.799999999865220e+00
	1.799999999910367e+00
	1.799999999976831e+00
	1.799999999943388e+00
	1.799999999988415e+00
	1.799999995168357e+00
	1.799999997539032e+00
	1.799999997584178e+00
	1.799999999871748e+00
	1.799999999890848e+00
	1.799999999935873e+00
	1.800000000000000e+00
	1.800000000000000e+00
	1.800000000000000e+00
	1.800000000000000e+00
	1.800000000000000e+00
	0.000000000000000e+00
	-2.101002427590259e-10
	2.503936604882310e-03
	0.000000000000000e+00
	1.690000000000000e+00
	7.285196782191861e-05
	2.515401049123511e-04
	1.651164822241924e-03
	5.283794997552604e-04
	-2.503936394731454e-03

 12	1.200000000000000e-01
	0.000000000000000e+00
	0.000000000000000e+00
	0.000000000000000e+00
	7.076220065180276e-05
	0.000000000000000e+00
	0.000000000000000e+00
	0.000000000000000e+00
	2.474455509199269e-04
	0.000000000000000e+00
	0.000000000000000e+00
	0.000000000000000e+00
	5.159064883632638e-04
	0.000000000000000e+00
	0.000000000000000e+00
	0.000000000000000e+00
	1.634089361597818e-03
	0.000000000000000e+00
	0.000000000000000e+00
	1.800000000000000e+00
	0.000000000000000e+00
	0.000000000000000e+00
	1.200000000000000e-01
	1.799999999817429e+00
	1.799999999863567e+00
	1.799999999908714e+00
	1.799999999976788e+00
	1.799999999943367e+00
	1.799999999988394e+00
	1.799999994923135e+00
	1.799999997416421e+00
	1.799999997461567e+00
	1.799999999869338e+00
	1.799999999889643e+00
	1.799999999934668e+00
	1.800000000000000e+00
	1.800000000000000e+00
	1.800000000000000e+00
	1.800000000000000e+00
	1.800000000000000e+00
	0.000000000000000e+00
	-2.201394205814111e-10
	2.468203821672158e-03
	0.000000000000000e+00
	1.680000000000000e+00
	7.076220065016514e-05
	2.474455509116069e-04
	1.634089361587598e-03
	5.159064883457631e-04
	-2.468203601495134e-03

 13	1.300000000000000e-01
	0.000000000000000e+00
	0.000000000000000e+00
	0.000000000000000e+00
	6.869994787633417e-05
	0.000000000000000e+00
	0.000000000000000e+00
	0.000000000000000e+00
	2.433614205594378e-04
	0.000000000000000e+00
	0.000000000000000e+00
	0.000000000000000e+00
	5.035378283889661e-04
	0.000000000000000e+00
	0.000000000000000e+00
	0.000000000000000e+00
	1.616938935995260e-03
	0.000000000000000e+00
	0.000000000000000e+00
	1.800000000000000e+00
	0.000000000000000e+00
	0.000000000000000e+00
	1.300000000000000e-01
	1.799999999814238e+00
	1.799999999861972e+00
	1.799999999907119e+00
	1.799999999976744e+00
	1.799999999943345e+00
	1.799999999988372e+00
	1.799999994671939e+00
	1.799999997290822e+00
	1.799999997335969e+00
	1.799999999866928e+00
	1.799999999888438e+00
	1.799999999933463e+00
	1.800000000000000e+00
	1.800000000000000e+00
	1.800000000000000e+00
	1.800000000000000e+00
	1.800000000000000e+00
	0.000000000000000e+00
	-2.304130428121276e-10
	2.432538363233013e-03
	0.000000000000000e+00
	1.670000000000000e+00
	6.869994786029565e-05
	2.433614205443746e-04
	1.616938935995904e-03
	5.035378283864134e-04
	-2.432538132786988e-03

 14	1.400000000000000e-01
	0.000000000000000e+00
	0.000000000000000e+00
	0.000000000000000e+00
	6.666536525243331e-05
	0.000000000000000e+00
	0.000000000000000e+00
	0.000000000000000e+00
	2.392888967115194e-04
	0.000000000000000e+00
	0.000000000000000e+00
	0.000000000000000e+00
	4.912753552629341e-04
	0.000000000000000e+00
	0.000000000000000e+00
	0.000000000000000e+00
	1.599716763099416e-03
	0.000000000000000e+00
	0.000000000000000e+00
	1.800000000000000e+00
	0.000000000000000e+00
	0.000000000000000e+00
	1.400000000000000e-01
	1.799999999811171e+00
	1.799999999860438e+00
	1.799999999905586e+00
	1.799999999976697e+00
	1.799999999943321e+00
	1.799999999988348e+00
	1.799999994415065e+00
	1.799999997162386e+00
	1.799999997207532e+00
	1.799999999864520e+00
	1.799999999887234e+00
	1.799999999932259e+00
	1.800000000000000e+00
	1.800000000000000e+00
	1.800000000000000e+00
	1.800000000000000e+00
	1.800000000000000e+00
	0.000000000000000e+00
	-2.409089039367984e-10
	2.396946621235162e-03
	0.000000000000000e+00
	1.660000000000000e+00
	6.666536524591038e-05
	2.392888967150952e-04
	1.599716763088566e-03
	4.912753552659410e-04
	-2.396946380315512e-03

 15	1.500000000000000e-01
	0.000000000000000e+00
	0.000000000000000e+00
	0.000000000000000e+00
	6.465860772776620e-05
	0.000000000000000e+00
	0.000000000000000e+00
	0.000000000000000e+00
	2.352291556473985e-04
	0.000000000000000e+00
	0.000000000000000e+00
	0.000000000000000e+00
	4.791209071591758e-04
	0.000000000000000e+00
	0.000000000000000e+00
	0.000000000000000e+00
	1.582426127350366e-03
	0.000000000000000e+00
	0.000000000000000e+00
	1.800000000000000e+00
	0.000000000000000e+00
	0.000000000000000e+00
	1.500000000000000e-01
	1.799999999808237e+00
	1.799999999858971e+00
	1.799999999904119e+00
	1.799999999976649e+00
	1.799999999943297e+00
	1.799999999988324e+00
	1.799999994152845e+00
	1.799999997031275e+00
	1.799999997076422e+00
	1.799999999862114e+00
	1.799999999886031e+00
	1.799999999931056e+00
	1.800000000000000e+00
	1.800000000000000e+00
	1.800000000000000e+00
	1.800000000000000e+00
	1.800000000000000e+00
	0.000000000000000e+00
	-2.516131192287219e-10
	2.361435049497848e-03
	0.000000000000000e+00
	1.650000000000000e+00
	6.465860772664200e-05
	2.352291556491082e-04
	1.582426127363590e-03
	4.791209071512981e-04
	-2.361434797890638e-03

 16	1.600000000000000e-01
	0.000000000000000e+00
	0.000000000000000e+00
	0.000000000000000e+00
	6.267982947122519e-05
	0.000000000000000e+00
	0.000000000000000e+00
	0.000000000000000e+00
	2.311833658655858e-04
	0.000000000000000e+00
	0.000000000000000e+00
	0.000000000000000e+00
	4.670763246816159e-04
	0.000000000000000e+00
	0.000000000000000e+00
	0.000000000000000e+00
	1.565070378708633e-03
	0.000000000000000e+00
	0.000000000000000e+00
	1.800000000000000e+00
	0.000000000000000e+00
	0.000000000000000e+00
	1.600000000000000e-01
	1.799999999805447e+00
	1.799999999857576e+00
	1.799999999902724e+00
	1.799999999976599e+00
	1.799999999943272e+00
	1.799999999988299e+00
	1.799999993885649e+00
	1.799999996897677e+00
	1.799999996942824e+00
	1.799999999859712e+00
	1.799999999884830e+00
	1.799999999929855e+00
	1.800000000000000e+00
	1.800000000000000e+00
	1.800000000000000e+00
	1.800000000000000e+00
	1.800000000000000e+00
	0.000000000000000e+00
	-2.625106937381716e-10
	2.326010161237747e-03
	0.000000000000000e+00
	1.640000000000000e+00
	6.267982948315876e-05
	2.311833658552587e-04
	1.565070378717337e-03
	4.670763246892307e-04
	-2.326009898744985e-03

 17	1.700000000000000e-01
	0.000000000000000e+00
	0.000000000000000e+00
	0.000000000000000e+00
	6.072918388805528e-05
	0.000000000000000e+00
	0.000000000000000e+00
	0.000000000000000e+00
	2.271526869383004e-04
	0.000000000000000e+00
	0.000000000000000e+00
	0.000000000000000e+00
	4.551434505276973e-04
	0.000000000000000e+00
	0.000000000000000e+00
	0.000000000000000e+00
	1.547652931293287e-03
	0.000000000000000e+00
	0.000000000000000e+00
	1.800000000000000e+00
	0.000000000000000e+00
	0.000000000000000e+00
	1.700000000000000e-01
	1.799999999802810e+00
	1.799999999856257e+00
	1.799999999901405e+00
	1.799999999976548e+00
	1.799999999943247e+00
	1.799999999988274e+00
	1.799999993613880e+00
	1.799999996761793e+00
	1.799999996806940e+00
	1.799999999857316e+00
	1.799999999883632e+00
	1.799999999928657e+00
	1.800000000000000e+00
	1.800000000000000e+00
	1.800000000000000e+00
	1.800000000000000e+00
	1.800000000000000e+00
	0.000000000000000e+00
	-2.735849255475209e-10
	2.290678526232175e-03
	0.000000000000000e+00
	1.630000000000000e+00
	6.072918389321558e-05
	2.271526869463969e-04
	1.547652931265020e-03
	4.551434505160046e-04
	-2.290678252620637e-03

 18	1.800000000000000e-01
	0.000000000000000e+00
	0.000000000000000e+00
	0.000000000000000e+00
	5.880682364086750e-05
	0.000000000000000e+00
	0.000000000000000e+00
	0.000000000000000e+00
	2.231382683690336e-04
	0.000000000000000e+00
	0.000000000000000e+00
	0.000000000000000e+00
	4.433241291577265e-04
	0.000000000000000e+00
	0.000000000000000e+00
	0.000000000000000e+00
	1.530177261916721e-03
	0.000000000000000e+00
	0.000000000000000e+00
	1.800000000000000e+00
	0.000000000000000e+00
	0.000000000000000e+00
	1.800000000000000e-01
	1.799999999800334e+00
	1.799999999855020e+00
	1.799999999900167e+00
	1.799999999976495e+00
	1.799999999943220e+00
	1.799999999988247e+00
	1.799999993337983e+00
	1.799999996623844e+00
	1.799999996668991e+00
	1.799999999854927e+00
	1.799999999882437e+00
	1.799999999927462e+00
	1.800000000000000e+00
	1.800000000000000e+00
	1.800000000000000e+00
	1.800000000000000e+00
	1.800000000000000e+00
	0.000000000000000e+00
	-2.848174127101366e-10
	2.255446767901794e-03
	0.000000000000000e+00
	1.620000000000000e+00
	5.880682363113010e-05
	2.231382683675065e-04
	1.530177261933829e-03
	4.433241291366130e-04
	-2.255446483069079e-03

 19	1.900000000000000e-01
	0.000000000000000e+00
	0.000000000000000e+00
	0.000000000000000e+00
	5.691290067730878e-05
	0.000000000000000e+00
	0.000000000000000e+00
	0.000000000000000e+00
	2.191412484638004e-04
	0.000000000000000e+00
	0.000000000000000e+00
	0.000000000000000e+00
	4.316202064722940e-04
	0.000000000000000e+00
	0.000000000000000e+00
	0.000000000000000e+00
	1.512646908515707e-03
	0.000000000000000e+00
	0.000000000000000e+00
	1.800000000000000e+00
	0.000000000000000e+00
	0.000000000000000e+00
	1.900000000000000e-01
	1.799999999798029e+00
	1.799999999853867e+00
	1.799999999899015e+00
	1.799999999976440e+00
	1.799999999943193e+00
	1.799999999988220e+00
	1.799999993058438e+00
	1.799999996484072e+00
	1.799999996529219e+00
	1.799999999852546e+00
	1.799999999881247e+00
	1.799999999926272e+00
	1.800000000000000e+00
	1.800000000000000e+00
	1.800000000000000e+00
	1.800000000000000e+00
	1.800000000000000e+00
	0.000000000000000e+00
	-2.961888165287085e-10
	2.220321560317961e-03
	0.000000000000000e+00
	1.610000000000000e+00
	5.691290068199351e-05
	2.191412484577882e-04
	1.512646908508941e-03
	4.316202064558183e-04
	-2.220321264104541e-03

 20	2.000000000000000e-01
	0.000000000000000e+00
	0.000000000000000e+00
	0.000000000000000e+00
	5.504756626524217e-05
	0.000000000000000e+00
	0.000000000000000e+00
	0.000000000000000e+00
	2.151627532186079e-04
	0.000000000000000e+00
	0.000000000000000e+00
	0.000000000000000e+00
	4.200335295001701e-04
	0.000000000000000e+00
	0.000000000000000e+00
	0.000000000000000e+00
	1.495065468478550e-03
	0.000000000000000e+00
	0.000000000000000e+00
	1.800000000000000e+00
	0.000000000000000e+00
	0.000000000000000e+00
	2.000000000000000e-01
	1.799999999795905e+00
	1.799999999852805e+00
	1.799999999897953e+00
	1.799999999976385e+00
	1.799999999943165e+00
	1.799999999988192e+00
	1.799999992775764e+00
	1.799999996342735e+00
	1.799999996387881e+00
	1.799999999850174e+00
	1.799999999880061e+00
	1.799999999925086e+00
	1.800000000000000e+00
	1.800000000000000e+00
	1.800000000000000e+00
	1.800000000000000e+00
	1.800000000000000e+00
	0.000000000000000e+00
	-3.076778345989517e-10
	2.185309625140435e-03
	0.000000000000000e+00
	1.600000000000000e+00
	5.504756624929996e-05
	2.151627532143152e-04
	1.495065468475332e-03
	4.200335295010404e-04
	-2.185309317439987e-03

 21	2.100000000000000e-01
	0.000000000000000e+00
	0.000000000000000e+00
	0.000000000000000e+00
	5.321097103636488e-05
	0.000000000000000e+00
	0.000000000000000e+00
	0.000000000000000e+00
	2.112038952255853e-04
	0.000000000000000e+00
	0.000000000000000e+00
	0.000000000000000e+00
	4.085659460995311e-04
	0.000000000000000e+00
	0.000000000000000e+00
	0.000000000000000e+00
	1.477436596868460e-03
	0.000000000000000e+00
	0.000000000000000e+00
	1.800000000000000e+00
	0.000000000000000e+00
	0.000000000000000e+00
	2.100000000000000e-01
	1.799999999793969e+00
	1.799999999851837e+00
	1.799999999896985e+00
	1.799999999976329e+00
	1.799999999943137e+00
	1.799999999988164e+00
	1.799999992490518e+00
	1.799999996200112e+00
	1.799999996245259e+00
	1.799999999847814e+00
	1.799999999878881e+00
	1.799999999923906e+00
	1.800000000000000e+00
	1.800000000000000e+00
	1.800000000000000e+00
	1.800000000000000e+00
	1.800000000000000e+00
	0.000000000000000e+00
	-3.192618114322698e-10
	2.150417728491708e-03
	0.000000000000000e+00
	1.590000000000000e+00
	5.321097103205830e-05
	2.112038952262196e-04
	1.477436596857729e-03
	4.085659460741908e-04
	-2.150417409190197e-03

 22	2.200000000000001e-01
	0.000000000000000e+00
	0.000000000000000e+00
	0.000000000000000e+00
	5.140326503929313e-05
	0.000000000000000e+00
	0.000000000000000e+00
	0.000000000000000e+00
	2.072657726001784e-04
	0.000000000000000e+00
	0.000000000000000e+00
	0.000000000000000e+00
	3.972193046755630e-04
	0.000000000000000e+00
	0.000000000000000e+00
	0.000000000000000e+00
	1.459764004543366e-03
	0.000000000000000e+00
	0.000000000000000e+00
	1.800000000000000e+00
	0.000000000000000e+00
	0.000000000000000e+00
	2.200000000000001e-01
	1.799999999792231e+00
	1.799999999850968e+00
	1.799999999896116e+00
	1.799999999976270e+00
	1.799999999943108e+00
	1.799999999988135e+00
	1.799999992203298e+00
	1.799999996056502e+00
	1.799999996101649e+00
	1.799999999845468e+00
	1.799999999877708e+00
	1.799999999922733e+00
	1.800000000000000e+00
	1.800000000000000e+00
	1.800000000000000e+00
	1.800000000000000e+00
	1.800000000000000e+00
	0.000000000000000e+00
	-3.309163290610151e-10
	2.115652677774684e-03
	0.000000000000000e+00
	1.580000000000000e+00
	5.140326503294546e-05
	2.072657726017724e-04
	1.459764004529518e-03
	3.972193046806183e-04
	-2.115652346844854e-03

 23	2.300000000000001e-01
	0.000000000000000e+00
	0.000000000000000e+00
	0.000000000000000e+00
	4.962459780322275e-05
	0.000000000000000e+00
	0.000000000000000e+00
	0.000000000000000e+00
	2.033494679317294e-04
	0.000000000000000e+00
	0.000000000000000e+00
	0.000000000000000e+00
	3.859954539179464e-04
	0.000000000000000e+00
	0.000000000000000e+00
	0.000000000000000e+00
	1.442051456172744e-03
	0.000000000000000e+00
	0.000000000000000e+00
	1.800000000000000e+00
	0.000000000000000e+00
	0.000000000000000e+00
	2.300000000000001e-01
	1.799999999790698e+00
	1.799999999850201e+00
	1.799999999895349e+00
	1.799999999976211e+00
	1.799999999943078e+00
	1.799999999988106e+00
	1.799999991914740e+00
	1.799999995912223e+00
	1.799999995957370e+00
	1.799999999843135e+00
	1.799999999876541e+00
	1.799999999921567e+00
	1.800000000000000e+00
	1.800000000000000e+00
	1.800000000000000e+00
	1.800000000000000e+00
	1.800000000000000e+00
	0.000000000000000e+00
	-3.426156650054857e-10
	2.081021318441264e-03
	0.000000000000000e+00
	1.570000000000000e+00
	4.962459779278561e-05
	2.033494679238856e-04
	1.442051456180593e-03
	3.859954539180421e-04
	-2.081020975815306e-03

 24	2.400000000000001e-01
	0.000000000000000e+00
	0.000000000000000e+00
	0.000000000000000e+00