Title: ** sch_path:
Date: Sun Mar 20 21:17:43  2022
Plotname: DC transfer characteristic
Flags: real
No. Variables: 21
No. Points: 501
Variables:
	0	v-sweep	voltage
	1	b	voltage
	2	d5v0	voltage
	3	i(e1)	current
	4	g5v0	voltage
	5	m.xm1.msky130_fd_pr__pfet_g5v0d10v5#body	voltage
	6	m.xm1.msky130_fd_pr__pfet_g5v0d10v5#dbody	voltage
	7	m.xm1.msky130_fd_pr__pfet_g5v0d10v5#sbody	voltage
	8	m.xm2.msky130_fd_pr__pfet_g5v0d10v5#body	voltage
	9	m.xm2.msky130_fd_pr__pfet_g5v0d10v5#dbody	voltage
	10	m.xm2.msky130_fd_pr__pfet_g5v0d10v5#sbody	voltage
	11	net1	voltage
	12	net2	voltage
	13	s	voltage
	14	i(vb)	current
	15	i(vd)	current
	16	vds	voltage
	17	i(vg)	current
	18	i(vp_long)	current
	19	i(vp_short)	current
	20	i(vs)	current
Values:
 0	0.000000000000000e+00
	5.000000000000000e+00
	0.000000000000000e+00
	0.000000000000000e+00
	0.000000000000000e+00
	4.999977579786253e+00
	4.999988789768121e+00
	4.999988789893124e+00
	4.999999999895258e+00
	4.999999999822621e+00
	4.999999999947629e+00
	5.000000000000000e+00
	5.000000000000000e+00
	5.000000000000000e+00
	-8.968177399315547e-07
	1.969898039596794e-02
	5.000000000000000e+00
	0.000000000000000e+00
	1.868106382630685e-03
	1.782997719578816e-02
	-1.969808357841885e-02

 1	1.000000000000000e-02
	5.000000000000000e+00
	1.000000000000000e-02
	0.000000000000000e+00
	0.000000000000000e+00
	4.999978749328986e+00
	4.999989374539737e+00
	4.999989374664491e+00
	4.999999999901206e+00
	4.999999999825845e+00
	4.999999999950603e+00
	5.000000000000000e+00
	5.000000000000000e+00
	5.000000000000000e+00
	-8.500357827206928e-07
	1.969192627559413e-02
	4.990000000000000e+00
	0.000000000000000e+00
	1.868012718773571e-03
	1.782306352129126e-02
	-1.969107624006483e-02

 2	2.000000000000000e-02
	5.000000000000000e+00
	2.000000000000000e-02
	0.000000000000000e+00
	0.000000000000000e+00
	4.999979864196637e+00
	4.999989931973813e+00
	4.999989932098316e+00
	4.999999999906406e+00
	4.999999999828695e+00
	4.999999999953203e+00
	5.000000000000000e+00
	5.000000000000000e+00
	5.000000000000000e+00
	-8.054408586755102e-07
	1.968485934884523e-02
	4.980000000000000e+00
	0.000000000000000e+00
	1.867918652351364e-03
	1.781613525599823e-02
	-1.968405390834960e-02

 3	3.000000000000000e-02
	5.000000000000000e+00
	3.000000000000000e-02
	0.000000000000000e+00
	0.000000000000000e+00
	4.999980926628892e+00
	4.999990463190191e+00
	4.999990463314443e+00
	4.999999999910948e+00
	4.999999999831216e+00
	4.999999999955474e+00
	5.000000000000000e+00
	5.000000000000000e+00
	5.000000000000000e+00
	-7.629433767947225e-07
	1.967777942268167e-02
	4.970000000000000e+00
	0.000000000000000e+00
	1.867824178816591e-03
	1.780919230077416e-02
	-1.967701647959075e-02

 4	4.000000000000000e-02
	5.000000000000000e+00
	4.000000000000000e-02
	0.000000000000000e+00
	0.000000000000000e+00
	4.999981938787816e+00
	4.999990969269902e+00
	4.999990969393906e+00
	4.999999999914909e+00
	4.999999999833446e+00
	4.999999999957454e+00
	5.000000000000000e+00
	5.000000000000000e+00
	5.000000000000000e+00
	-7.224568514124785e-07
	1.967068630674973e-02
	4.960000000000000e+00
	0.000000000000000e+00
	1.867729292939657e-03
	1.780223455727992e-02
	-1.966996385021957e-02

 5	5.000000000000000e-02
	5.000000000000000e+00
	5.000000000000000e-02
	0.000000000000000e+00
	0.000000000000000e+00
	4.999982902759976e+00
	4.999991451256232e+00
	4.999991451379985e+00
	4.999999999918360e+00
	4.999999999835422e+00
	4.999999999959180e+00
	5.000000000000000e+00
	5.000000000000000e+00
	5.000000000000000e+00
	-6.838978168777210e-07
	1.966357981327960e-02
	4.950000000000000e+00
	0.000000000000000e+00
	1.867633989377282e-03
	1.779526192638059e-02
	-1.966289591575787e-02

 6	6.000000000000000e-02
	5.000000000000000e+00
	6.000000000000000e-02
	0.000000000000000e+00
	0.000000000000000e+00
	4.999983820558551e+00
	4.999991910155770e+00
	4.999991910279273e+00
	4.999999999921363e+00
	4.999999999837174e+00
	4.999999999960681e+00
	5.000000000000000e+00
	5.000000000000000e+00
	5.000000000000000e+00
	-6.471857438433704e-07
	1.965645975699104e-02
	4.940000000000000e+00
	0.000000000000000e+00
	1.867538263468305e-03
	1.778827430780439e-02
	-1.965581257127269e-02

 7	7.000000000000001e-02
	5.000000000000000e+00
	7.000000000000001e-02
	0.000000000000000e+00
	0.000000000000000e+00
	4.999984694125375e+00
	4.999992346939432e+00
	4.999992347062685e+00
	4.999999999923978e+00
	4.999999999838731e+00
	4.999999999961989e+00
	5.000000000000000e+00
	5.000000000000000e+00
	5.000000000000000e+00
	-6.122429562910314e-07
	1.964932595498503e-02
	4.930000000000000e+00
	0.000000000000000e+00
	1.867442110324191e-03
	1.778127160196163e-02
	-1.964871371228583e-02

 8	8.000000000000000e-02
	5.000000000000000e+00
	8.000000000000000e-02
	0.000000000000000e+00
	0.000000000000000e+00
	4.999985525332976e+00
	4.999992762543481e+00
	4.999992762666485e+00
	4.999999999926248e+00
	4.999999999840115e+00
	4.999999999963124e+00
	5.000000000000000e+00
	5.000000000000000e+00
	5.000000000000000e+00
	-5.789945514284023e-07
	1.964217822664693e-02
	4.920000000000000e+00
	0.000000000000000e+00
	1.867345523805852e-03
	1.777425370835317e-02
	-1.964159923215902e-02

 9	9.000000000000000e-02
	5.000000000000000e+00
	9.000000000000000e-02
	0.000000000000000e+00
	0.000000000000000e+00
	4.999986315986540e+00
	4.999993157870514e+00
	4.999993157993267e+00
	4.999999999928218e+00
	4.999999999841351e+00
	4.999999999964110e+00
	5.000000000000000e+00
	5.000000000000000e+00
	5.000000000000000e+00
	-5.473683200724055e-07
	1.963501639354348e-02
	4.910000000000000e+00
	0.000000000000000e+00
	1.867248499593188e-03
	1.776722052602508e-02
	-1.963446902561827e-02

 10	9.999999999999999e-02
	5.000000000000000e+00
	9.999999999999999e-02
	0.000000000000000e+00
	0.000000000000000e+00
	4.999987067825858e+00
	4.999993533790423e+00
	4.999993533912926e+00
	4.999999999929929e+00
	4.999999999842457e+00
	4.999999999964964e+00
	5.000000000000000e+00
	5.000000000000000e+00
	5.000000000000000e+00
	-5.172946688919433e-07
	1.962784027937658e-02
	4.900000000000000e+00
	0.000000000000000e+00
	1.867151031319736e-03
	1.776017195334134e-02
	-1.962732298466108e-02

 11	1.100000000000000e-01
	5.000000000000000e+00
	1.100000000000000e-01
	0.000000000000000e+00
	0.000000000000000e+00
	4.999987782527218e+00
	4.999993891141353e+00
	4.999993891263607e+00
	4.999999999931415e+00
	4.999999999843450e+00
	4.999999999965707e+00
	5.000000000000000e+00
	5.000000000000000e+00
	5.000000000000000e+00
	-4.887065450653871e-07
	1.962064970978616e-02
	4.890000000000000e+00
	0.000000000000000e+00
	1.867053113869588e-03
	1.775310788946172e-02
	-1.962016100333130e-02

 12	1.200000000000000e-01
	5.000000000000000e+00
	1.200000000000000e-01
	0.000000000000000e+00
	0.000000000000000e+00
	4.999988461705277e+00
	4.999994230730632e+00
	4.999994230852636e+00
	4.999999999932703e+00
	4.999999999844343e+00
	4.999999999966351e+00
	5.000000000000000e+00
	5.000000000000000e+00
	5.000000000000000e+00
	-4.615393612295016e-07
	1.961344451238745e-02
	4.880000000000000e+00
	0.000000000000000e+00
	1.866954742013149e-03
	1.774602823104487e-02
	-1.961298297305802e-02

 13	1.300000000000000e-01
	5.000000000000000e+00
	1.300000000000000e-01
	0.000000000000000e+00
	0.000000000000000e+00
	4.999989106914875e+00
	4.999994553335681e+00
	4.999994553457435e+00
	4.999999999933822e+00
	4.999999999845153e+00
	4.999999999966911e+00
	5.000000000000000e+00
	5.000000000000000e+00
	5.000000000000000e+00
	-4.357309225794248e-07
	1.960622451655425e-02
	4.870000000000000e+00
	0.000000000000000e+00
	1.866855909838705e-03
	1.773893287577266e-02
	-1.960578878561137e-02

 14	1.400000000000000e-01
	5.000000000000000e+00
	1.400000000000000e-01
	0.000000000000000e+00
	0.000000000000000e+00
	4.999989719652822e+00
	4.999994859704906e+00
	4.999994859826408e+00
	4.999999999934793e+00
	4.999999999845889e+00
	4.999999999967396e+00
	5.000000000000000e+00
	5.000000000000000e+00
	5.000000000000000e+00
	-4.112213558421507e-07
	1.959898955345452e-02
	4.860000000000000e+00
	0.000000000000000e+00
	1.866756611207165e-03
	1.773182172098586e-02
	-1.959857833219303e-02

 15	1.500000000000000e-01
	5.000000000000000e+00
	1.500000000000000e-01
	0.000000000000000e+00
	0.000000000000000e+00
	4.999990301359650e+00
	4.999995150558568e+00
	4.999995150679823e+00
	4.999999999935637e+00
	4.999999999846560e+00
	4.999999999967819e+00
	5.000000000000000e+00
	5.000000000000000e+00
	5.000000000000000e+00
	-3.879530389161445e-07
	1.959173945584070e-02
	4.850000000000000e+00
	0.000000000000000e+00
	1.866656841002623e-03
	1.772469466197890e-02
	-1.959135150298152e-02

 16	1.600000000000000e-01
	5.000000000000000e+00
	1.600000000000000e-01
	0.000000000000000e+00
	0.000000000000000e+00
	4.999990853421305e+00
	4.999995426589646e+00
	4.999995426710649e+00
	4.999999999936373e+00
	4.999999999847178e+00
	4.999999999968186e+00
	5.000000000000000e+00
	5.000000000000000e+00
	5.000000000000000e+00
	-3.658705332032497e-07
	1.958447405805686e-02
	4.840000000000000e+00
	0.000000000000000e+00
	1.866556592517554e-03
	1.771755159552413e-02
	-1.958410818804168e-02

 17	1.700000000000000e-01
	5.000000000000000e+00
	1.700000000000000e-01
	0.000000000000000e+00
	0.000000000000000e+00
	4.999991377170846e+00
	4.999995688464667e+00
	4.999995688585420e+00
	4.999999999937014e+00
	4.999999999847748e+00
	4.999999999968507e+00
	5.000000000000000e+00
	5.000000000000000e+00
	5.000000000000000e+00
	-3.449205159822277e-07
	1.957719319593565e-02
	4.830000000000000e+00
	0.000000000000000e+00
	1.866455859840244e-03
	1.771039241566541e-02
	-1.957684827550565e-02

 18	1.800000000000000e-01
	5.000000000000000e+00
	1.800000000000000e-01
	0.000000000000000e+00
	0.000000000000000e+00
	4.999991873890052e+00
	4.999995936824520e+00
	4.999995936945023e+00
	4.999999999937574e+00
	4.999999999848280e+00
	4.999999999968787e+00
	5.000000000000000e+00
	5.000000000000000e+00
	5.000000000000000e+00
	-3.250517153496890e-07
	1.956989670667753e-02
	4.820000000000000e+00
	0.000000000000000e+00
	1.866354637400036e-03
	1.770321701781086e-02
	-1.956957165521089e-02

 19	1.900000000000000e-01
	5.000000000000000e+00
	1.900000000000000e-01
	0.000000000000000e+00
	0.000000000000000e+00
	4.999992344811036e+00
	4.999996172285263e+00
	4.999996172405515e+00
	4.999999999938069e+00
	4.999999999848777e+00
	4.999999999969035e+00
	5.000000000000000e+00
	5.000000000000000e+00
	5.000000000000000e+00
	-3.062148461741021e-07
	1.956258442877612e-02
	4.810000000000000e+00
	0.000000000000000e+00
	1.866252918262035e-03
	1.769602529577696e-02
	-1.956227821403900e-02

 20	2.000000000000000e-01
	5.000000000000000e+00
	2.000000000000000e-01
	0.000000000000000e+00
	0.000000000000000e+00
	4.999992791117811e+00
	4.999996395438900e+00
	4.999996395558902e+00
	4.999999999938503e+00
	4.999999999849243e+00
	4.999999999969251e+00
	5.000000000000000e+00
	5.000000000000000e+00
	5.000000000000000e+00
	-2.883625477845264e-07
	1.955525620197562e-02
	4.800000000000000e+00
	0.000000000000000e+00
	1.866150696741897e-03
	1.768881714281179e-02
	-1.955496783955368e-02

 21	2.100000000000000e-01
	5.000000000000000e+00
	2.100000000000000e-01
	0.000000000000000e+00
	0.000000000000000e+00
	4.999993213947802e+00
	4.999996606854145e+00
	4.999996606973898e+00
	4.999999999938885e+00
	4.999999999849685e+00
	4.999999999969442e+00
	5.000000000000000e+00
	5.000000000000000e+00
	5.000000000000000e+00
	-2.714493228112014e-07
	1.954791186718552e-02
	4.790000000000000e+00
	0.000000000000000e+00
	1.866047965904727e-03
	1.768159245250445e-02
	-1.954764041840917e-02

 22	2.200000000000001e-01
	5.000000000000000e+00
	2.200000000000001e-01
	0.000000000000000e+00
	0.000000000000000e+00
	4.999993614393350e+00
	4.999996807077169e+00
	4.999996807196672e+00
	4.999999999939228e+00
	4.999999999850106e+00
	4.999999999969615e+00
	5.000000000000000e+00
	5.000000000000000e+00
	5.000000000000000e+00
	-2.554314772612587e-07
	1.954055126633136e-02
	4.780000000000000e+00
	0.000000000000000e+00
	1.865944718815626e-03
	1.767435111594295e-02
	-1.954029583475858e-02

 23	2.300000000000001e-01
	5.000000000000000e+00
	2.300000000000001e-01
	0.000000000000000e+00
	0.000000000000000e+00
	4.999993993503162e+00
	4.999996996632325e+00
	4.999996996751578e+00
	4.999999999939534e+00
	4.999999999850509e+00
	4.999999999969767e+00
	5.000000000000000e+00
	5.000000000000000e+00
	5.000000000000000e+00
	-2.402670625095693e-07
	1.953317424241874e-02
	4.770000000000000e+00
	0.000000000000000e+00
	1.865840949790254e-03
	1.766709302592062e-02
	-1.953293397571088e-02

 24	2.400000000000001e-01
	5.000000000000000e+00
	2.400000000000001e-01
	0.000000000000000e+00
	0.000000000000000e+00
	4.999994352283738e+00
	4.999997176022863e+00
	4.999997176141866e+00
	4.999999999939809e+00
	4.999999999850896e+00
	4.999999999969904e+00
	5.000000000000000e+00
	5.000000000000000e+00
	5.000000000000000e+00
	-2.259158185385912e-07
	1.952578063930588e-02
	4.760000000000000e+00
	0.000000000000000e+00
	1.865736651097905e-03
	1.765981807238859e-02
	-1.952555472348649e-02

 25	2.500000000000001e-01
	5.000000000000000e+00
	2.500000000000001e-01
	0.000000000000000e+00
	0.000000000000000e+00
	4.999994691700755e+00
	4.999997345731622e+00
	4.999997345850375e+00
	4.999999999940059e+00
	4.999999999851271e+00
	4.999999999970029e+00
	5.000000000000000e+00
	5.000000000000000e+00
	5.000000000000000e+00
	-2.123391177610845e-07
	1.951837030171077e-02
	4.750000000000000e+00
	0.000000000000000e+00
	1.865631816485802e-03
	1.765252614620749e-02
	-1.951815796269329e-02

 26	2.600000000000001e-01
	5.000000000000000e+00
	2.600000000000001e-01
	0.000000000000000e+00
	0.000000000000000e+00
	4.999995012680425e+00
	4.999997506221707e+00
	4.999997506340209e+00
	4.999999999940288e+00
	4.999999999851635e+00
	4.999999999970144e+00
	5.000000000000000e+00
	5.000000000000000e+00
	5.000000000000000e+00
	-1.994999118543062e-07
	1.951094307515433e-02
	4.740000000000000e+00
	0.000000000000000e+00
	1.865526438564302e-03
	1.764521713676004e-02
	-1.951074357532434e-02

 27	2.700000000000001e-01
	5.000000000000000e+00
	2.700000000000001e-01
	0.000000000000000e+00
	0.000000000000000e+00
	4.999995316110811e+00
	4.999997657937150e+00
	4.999997658055403e+00
	4.999999999940498e+00
	4.999999999851990e+00
	4.999999999970249e+00
	5.000000000000000e+00
	5.000000000000000e+00
	5.000000000000000e+00
	-1.873626779419491e-07
	1.950349880580404e-02
	4.730000000000000e+00
	0.000000000000000e+00
	1.865420510284821e-03
	1.763789093308787e-02
	-1.950331144337270e-02

 28	2.800000000000001e-01
	5.000000000000000e+00
	2.800000000000001e-01
	0.000000000000000e+00
	0.000000000000000e+00
	4.999995602843128e+00
	4.999997801303557e+00
	4.999997801421561e+00
	4.999999999940695e+00
	4.999999999852339e+00
	4.999999999970347e+00
	5.000000000000000e+00
	5.000000000000000e+00
	5.000000000000000e+00
	-1.758933675377605e-07
	1.949603734055216e-02
	4.720000000000000e+00
	0.000000000000000e+00
	1.865314024030340e-03
	1.763054742332315e-02
	-1.949586144735349e-02

 29	2.900000000000001e-01
	5.000000000000000e+00
	2.900000000000001e-01
	0.000000000000000e+00
	0.000000000000000e+00
	4.999995873692978e+00
	4.999997936728732e+00
	4.999997936846486e+00
	4.999999999940876e+00
	4.999999999852680e+00
	4.999999999970438e+00
	5.000000000000000e+00
	5.000000000000000e+00
	5.000000000000000e+00
	-1.650593562663172e-07
	1.948855852676701e-02
	4.710000000000000e+00
	0.000000000000000e+00
	1.865206972752276e-03
	1.762318649491590e-02
	-1.948839346766817e-02

 30	3.000000000000001e-01
	5.000000000000000e+00
	3.000000000000001e-01
	0.000000000000000e+00
	0.000000000000000e+00
	4.999996129441596e+00
	4.999998064603292e+00
	4.999998064720796e+00
	4.999999999941050e+00
	4.999999999853017e+00
	4.999999999970525e+00
	5.000000000000000e+00
	5.000000000000000e+00
	5.000000000000000e+00
	-1.548293945274892e-07
	1.948106221234269e-02
	4.700000000000000e+00
	0.000000000000000e+00
	1.865099348606236e-03
	1.761580803452034e-02
	-1.948090738312658e-02

 31	3.100000000000001e-01
	5.000000000000000e+00
	3.100000000000001e-01
	0.000000000000000e+00
	0.000000000000000e+00
	4.999996370837033e+00
	4.999998185301260e+00
	4.999998185418514e+00
	4.999999999941212e+00
	4.999999999853348e+00
	4.999999999970606e+00
	5.000000000000000e+00
	5.000000000000000e+00
	5.000000000000000e+00
	-1.451735605756399e-07
	1.947354824557124e-02
	4.690000000000000e+00
	0.000000000000000e+00
	1.864991143975203e-03
	1.760841192822227e-02
	-1.947340307219747e-02

 32	3.200000000000001e-01
	5.000000000000000e+00
	3.200000000000001e-01
	0.000000000000000e+00
	0.000000000000000e+00
	4.999996598595310e+00
	4.999998299180649e+00
	4.999998299297652e+00
	4.999999999941369e+00
	4.999999999853676e+00
	4.999999999970684e+00
	5.000000000000000e+00
	5.000000000000000e+00
	5.000000000000000e+00
	-1.360632132657580e-07
	1.946601647519941e-02
	4.680000000000000e+00
	0.000000000000000e+00
	1.864882351242159e-03
	1.760099806097060e-02
	-1.946588041221275e-02

 33	3.300000000000001e-01
	5.000000000000000e+00
	3.300000000000001e-01
	0.000000000000000e+00
	0.000000000000000e+00
	4.999996813401569e+00
	4.999998406584028e+00
	4.999998406700781e+00
	4.999999999941520e+00
	4.999999999854001e+00
	4.999999999970760e+00
	5.000000000000000e+00
	5.000000000000000e+00
	5.000000000000000e+00
	-1.274709468535029e-07
	1.945846675016583e-02
	4.670000000000000e+00
	0.000000000000000e+00
	1.864772961766903e-03
	1.759356631760056e-02
	-1.945833927936746e-02

 34	3.400000000000001e-01
	5.000000000000000e+00
	3.400000000000001e-01
	0.000000000000000e+00
	0.000000000000000e+00
	4.999997015911158e+00
	4.999998507839074e+00
	4.999998507955576e+00
	4.999999999941664e+00
	4.999999999854325e+00
	4.999999999970832e+00
	5.000000000000000e+00
	5.000000000000000e+00
	5.000000000000000e+00
	-1.193705473773177e-07
	1.945089891970753e-02
	4.660000000000000e+00
	0.000000000000000e+00
	1.864662967932418e-03
	1.758611658169684e-02
	-1.945077954962926e-02

 35	3.500000000000001e-01
	5.000000000000000e+00
	3.500000000000001e-01
	0.000000000000000e+00
	0.000000000000000e+00
	4.999997206750706e+00
	4.999998603259098e+00
	4.999998603375350e+00
	4.999999999941807e+00
	4.999999999854645e+00
	4.999999999970903e+00
	5.000000000000000e+00
	5.000000000000000e+00
	5.000000000000000e+00
	-1.117369498038201e-07
	1.944331283320366e-02
	4.649999999999999e+00
	0.000000000000000e+00
	1.864552360871130e-03
	1.757864873559356e-02
	-1.944320109646469e-02

 36	3.600000000000002e-01
	5.000000000000000e+00
	3.600000000000002e-01
	0.000000000000000e+00
	0.000000000000000e+00
	4.999997386519169e+00
	4.999998693143579e+00
	4.999998693259582e+00
	4.999999999941943e+00
	4.999999999854964e+00
	4.999999999970972e+00
	5.000000000000000e+00
	5.000000000000000e+00
	5.000000000000000e+00
	-1.045461957838167e-07
	1.943570834013286e-02
	4.640000000000000e+00
	0.000000000000000e+00
	1.864441132624961e-03
	1.757116266151115e-02
	-1.943560379413611e-02

 37	3.700000000000002e-01
	5.000000000000000e+00
	3.700000000000002e-01
	0.000000000000000e+00
	0.000000000000000e+00
	4.999997555788847e+00
	4.999998777778668e+00
	4.999998777894421e+00
	4.999999999942081e+00
	4.999999999855282e+00
	4.999999999971041e+00
	5.000000000000000e+00
	5.000000000000000e+00
	5.000000000000000e+00
	-9.777539319855144e-08
	1.942808529006612e-02
	4.630000000000000e+00
	0.000000000000000e+00
	1.864329274212650e-03
	1.756365824053319e-02
	-1.942798751474584e-02

 38	3.800000000000002e-01
	5.000000000000000e+00
	3.800000000000002e-01
	0.000000000000000e+00
	0.000000000000000e+00
	4.999997715106352e+00
	4.999998857437671e+00
	4.999998857553173e+00
	4.999999999942213e+00
	4.999999999855598e+00
	4.999999999971107e+00
	5.000000000000000e+00
	5.000000000000000e+00
	5.000000000000000e+00
	-9.140267770435528e-08
	1.942044353251049e-02
	4.620000000000000e+00
	0.000000000000000e+00
	1.864216776880312e-03
	1.755613535328848e-02
	-1.942035213016879e-02

 39	3.900000000000002e-01
	5.000000000000000e+00
	3.900000000000002e-01
	0.000000000000000e+00
	0.000000000000000e+00
	4.999997864993590e+00
	4.999998932381539e+00
	4.999998932496792e+00
	4.999999999942347e+00
	4.999999999855915e+00
	4.999999999971173e+00
	5.000000000000000e+00
	5.000000000000000e+00
	5.000000000000000e+00
	-8.540717294502898e-08
	1.941278291695880e-02
	4.609999999999999e+00
	0.000000000000000e+00
	1.864103631532998e-03
	1.754859387858687e-02
	-1.941269751011987e-02

 40	4.000000000000002e-01
	5.000000000000000e+00
	4.000000000000002e-01
	0.000000000000000e+00
	0.000000000000000e+00
	4.999998005948671e+00
	4.999999002859330e+00
	4.999999002974333e+00
	4.999999999942476e+00
	4.999999999856231e+00
	4.999999999971238e+00
	5.000000000000000e+00
	5.000000000000000e+00
	5.000000000000000e+00
	-7.976895449735011e-08
	1.940510329268363e-02
	4.600000000000000e+00
	0.000000000000000e+00
	1.863989829075763e-03
	1.754103369512450e-02
	-1.940502352420026e-02

 41	4.100000000000002e-01
	5.000000000000000e+00
	4.100000000000002e-01
	0.000000000000000e+00
	0.000000000000000e+00
	4.999998138446826e+00
	4.999999069108657e+00
	4.999999069223410e+00
	4.999999999942604e+00
	4.999999999856544e+00
	4.999999999971302e+00
	5.000000000000000e+00
	5.000000000000000e+00
	5.000000000000000e+00
	-7.446901312269105e-08
	1.939740450883676e-02
	4.590000000000000e+00
	0.000000000000000e+00
	1.863875359958911e-03
	1.753345468011958e-02
	-1.939733004007849e-02

 42	4.200000000000002e-01
	5.000000000000000e+00
	4.200000000000002e-01
	0.000000000000000e+00
	0.000000000000000e+00
	4.999998262941278e+00
	4.999999131356134e+00
	4.999999131470636e+00
	4.999999999942734e+00
	4.999999999856859e+00
	4.999999999971367e+00
	5.000000000000000e+00
	5.000000000000000e+00
	5.000000000000000e+00
	-6.948921989213819e-08
	1.938968641434258e-02
	4.580000000000000e+00
	0.000000000000000e+00
	1.863760214519061e-03
	1.752585671101770e-02
	-1.938961692553676e-02

 43	4.300000000000002e-01
	5.000000000000000e+00
	4.300000000000002e-01
	0.000000000000000e+00
	0.000000000000000e+00
	4.999998379864092e+00
	4.999999189817791e+00
	4.999999189932043e+00
	4.999999999942862e+00
	4.999999999857172e+00
	4.999999999971431e+00
	5.000000000000000e+00
	5.000000000000000e+00
	5.000000000000000e+00
	-6.481229229693408e-08
	1.938194885772759e-02
	4.569999999999999e+00
	0.000000000000000e+00
	1.863644383320207e-03
	1.751823966253596e-02
	-1.938188404585617e-02

 44	4.400000000000002e-01
	5.000000000000000e+00
	4.400000000000002e-01
	0.000000000000000e+00
	0.000000000000000e+00
	4.999998489627002e+00
	4.999999244699495e+00
	4.999999244813498e+00
	4.999999999942988e+00
	4.999999999857486e+00
	4.999999999971494e+00
	5.000000000000000e+00
	5.000000000000000e+00
	5.000000000000000e+00
	-6.042176084464224e-08
	1.937419168729093e-02
	4.560000000000000e+00
	0.000000000000000e+00
	1.863527855675784e-03
	1.751060340973254e-02
	-1.937413126540832e-02

 45	4.500000000000002e-01
	5.000000000000000e+00
	4.500000000000002e-01
	0.000000000000000e+00
	0.000000000000000e+00
	4.999998592622218e+00
	4.999999296197353e+00
	4.999999296311106e+00
	4.999999999943115e+00
	4.999999999857799e+00
	4.999999999971558e+00
	5.000000000000000e+00
	5.000000000000000e+00
	5.000000000000000e+00
	-5.630193709860176e-08
	1.936641475082013e-02
	4.550000000000000e+00
	0.000000000000000e+00
	1.863410621922412e-03
	1.750294782721085e-02
	-1.936635844913326e-02

 46	4.600000000000002e-01
	5.000000000000000e+00
	4.600000000000002e-01
	0.000000000000000e+00
	0.000000000000000e+00
	4.999998689223191e+00
	4.999999344498089e+00
	4.999999344611593e+00
	4.999999999943243e+00
	4.999999999858113e+00
	4.999999999971622e+00
	5.000000000000000e+00
	5.000000000000000e+00
	5.000000000000000e+00
	-5.243788296638296e-08
	1.935861789561955e-02
	4.540000000000000e+00
	0.000000000000000e+00
	1.863292671714589e-03
	1.749527278627738e-02
	-1.935856545799197e-02

 47	4.700000000000003e-01
	5.000000000000000e+00
	4.700000000000003e-01
	0.000000000000000e+00
	0.000000000000000e+00
	4.999998779785379e+00
	4.999999389779433e+00
	4.999999389892687e+00
	4.999999999943366e+00
	4.999999999858424e+00
	4.999999999971683e+00
	5.000000000000000e+00
	5.000000000000000e+00
	5.000000000000000e+00
	-4.881538064049895e-08
	1.935080096858144e-02
	4.529999999999999e+00
	0.000000000000000e+00
	1.863173993569944e-03
	1.748757815960289e-02
	-1.935075215317283e-02

 48	4.800000000000003e-01
	5.000000000000000e+00
	4.800000000000003e-01
	0.000000000000000e+00
	0.000000000000000e+00
	4.999998864646964e+00
	4.999999432210476e+00
	4.999999432323479e+00
	4.999999999943491e+00
	4.999999999858737e+00
	4.999999999971746e+00
	5.000000000000000e+00
	5.000000000000000e+00
	5.000000000000000e+00
	-4.542090216441697e-08
	1.934296381594436e-02
	4.520000000000000e+00
	0.000000000000000e+00
	1.863054577597723e-03
	1.747986381792543e-02
	-1.934291839552316e-02

 49	4.900000000000003e-01
	5.000000000000000e+00
	4.900000000000003e-01
	0.000000000000000e+00
	0.000000000000000e+00
	4.999998944129560e+00
	4.999999471952024e+00
	4.999999472064777e+00
	4.999999999943618e+00
	4.999999999859051e+00
	4.999999999971809e+00
	5.000000000000000e+00
	5.000000000000000e+00
	5.000000000000000e+00
	-4.224158321741722e-08
	1.933510628332158e-02
	4.510000000000000e+00
	0.000000000000000e+00
	1.862934411747119e-03
	1.747212963016409e-02
	-1.933506404191121e-02

 50	5.000000000000002e-01
	5.000000000000000e+00
	5.000000000000002e-01
	0.000000000000000e+00
	0.000000000000000e+00
	4.999999018538904e+00
	4.999999509156947e+00
	4.999999509269450e+00
	4.999999999943745e+00
	4.999999999859364e+00
	4.999999999971872e+00
	5.000000000000000e+00
	5.000000000000000e+00
	5.000000000000000e+00
	-3.926519440144993e-08
	1.932722821564425e-02
	4.500000000000000e+00
	0.000000000000000e+00
	1.862813485217885e-03
	1.746437546535162e-02
	-1.932718895056951e-02

 51	5.100000000000002e-01
	5.000000000000000e+00
	5.100000000000002e-01
	0.000000000000000e+00
	0.000000000000000e+00
	4.999999088165510e+00
	4.999999543970500e+00
	4.999999544082753e+00
	4.999999999943868e+00
	4.999999999859676e+00
	4.999999999971934e+00
	5.000000000000000e+00
	5.000000000000000e+00
	5.000000000000000e+00
	-3.648011523416095e-08
	1.931932945717563e-02
	4.490000000000000e+00
	0.000000000000000e+00
	1.862691785731840e-03
	1.745660119138392e-02
	-1.931929297711577e-02

 52	5.200000000000002e-01
	5.000000000000000e+00
	5.200000000000002e-01
	0.000000000000000e+00
	0.000000000000000e+00
	4.999999153285305e+00
	4.999999576530646e+00
	4.999999576642650e+00
	4.999999999943995e+00
	4.999999999859989e+00
	4.999999999971998e+00
	5.000000000000000e+00
	5.000000000000000e+00
	5.000000000000000e+00
	-3.387530835008423e-08
	1.931140985129787e-02
	4.480000000000000e+00
	0.000000000000000e+00
	1.862569301806616e-03
	1.744880667411053e-02
	-1.931137597591714e-02

 53	5.300000000000002e-01
	5.000000000000000e+00
	5.300000000000002e-01
	0.000000000000000e+00
	0.000000000000000e+00
	4.999999214160264e+00
	4.999999606968377e+00
	4.999999607080129e+00
	4.999999999944120e+00
	4.999999999860302e+00
	4.999999999972061e+00
	5.000000000000000e+00
	5.000000000000000e+00
	5.000000000000000e+00
	-3.144029495083522e-08
	1.930346924063997e-02
	4.470000000000000e+00
	0.000000000000000e+00
	1.862446021164033e-03
	1.744099177938097e-02
	-1.930343780054500e-02

 54	5.400000000000003e-01
	5.000000000000000e+00
	5.400000000000003e-01
	0.000000000000000e+00
	0.000000000000000e+00
	4.999999271038985e+00
	4.999999635407987e+00
	4.999999635519490e+00
	4.999999999944245e+00
	4.999999999860615e+00
	4.999999999972123e+00
	5.000000000000000e+00
	5.000000000000000e+00
	5.000000000000000e+00
	-2.916513104633811e-08
	1.929550746689301e-02
	4.460000000000000e+00
	0.000000000000000e+00
	1.862321931071165e-03
	1.743315637099840e-02
	-1.929547830206957e-02

 55	5.500000000000003e-01
	5.000000000000000e+00
	5.500000000000003e-01
	0.000000000000000e+00
	0.000000000000000e+00
	4.999999324157284e+00
	4.999999661967387e+00
	4.999999662078640e+00
	4.999999999944370e+00
	4.999999999860927e+00
	4.999999999972185e+00
	5.000000000000000e+00
	5.000000000000000e+00
	5.000000000000000e+00
	-2.704038414014232e-08
	1.928752437083858e-02
	4.449999999999999e+00
	0.000000000000000e+00
	1.862197019136147e-03
	1.742530031197020e-02
	-1.928749733110635e-02

 56	5.600000000000003e-01
	5.000000000000000e+00
	5.600000000000003e-01
	0.000000000000000e+00
	0.000000000000000e+00
	4.999999373738745e+00
	4.999999686758366e+00
	4.999999686869369e+00
	4.999999999944495e+00
	4.999999999861240e+00
	4.999999999972247e+00
	5.000000000000000e+00
	5.000000000000000e+00
	5.000000000000000e+00
	-2.505711078903960e-08
	1.927951979220666e-02
	4.440000000000000e+00
	0.000000000000000e+00
	1.862071271602872e-03
	1.741742346359842e-02
	-1.927949473520130e-02

 57	5.700000000000003e-01
	5.000000000000000e+00
	5.700000000000003e-01
	0.000000000000000e+00
	0.000000000000000e+00
	4.999999419995258e+00
	4.999999709886874e+00
	4.999999709997626e+00
	4.999999999944620e+00
	4.999999999861553e+00
	4.999999999972310e+00
	5.000000000000000e+00
	5.000000000000000e+00
	5.000000000000000e+00
	-2.320683518963751e-08
	1.927149356983193e-02
	4.430000000000000e+00
	0.000000000000000e+00
	1.861944675056293e-03
	1.740952568798093e-02
	-1.927147036303722e-02

 58	5.800000000000003e-01
	5.000000000000000e+00
	5.800000000000003e-01
	0.000000000000000e+00
	0.000000000000000e+00
	4.999999463127542e+00
	4.999999731453265e+00
	4.999999731563769e+00
	4.999999999944746e+00
	4.999999999861865e+00
	4.999999999972373e+00
	5.000000000000000e+00
	5.000000000000000e+00
	5.000000000000000e+00
	-2.148152880576681e-08
	1.926344554134118e-02
	4.420000000000000e+00
	0.000000000000000e+00
	1.861817216536110e-03
	1.740160684357761e-02
	-1.926342406011372e-02

 59	5.900000000000003e-01
	5.000000000000000e+00
	5.900000000000003e-01
	0.000000000000000e+00
	0.000000000000000e+00
	4.999999503325640e+00
	4.999999751552564e+00
	4.999999751662817e+00
	4.999999999944871e+00
	4.999999999862178e+00
	4.999999999972435e+00
	5.000000000000000e+00
	5.000000000000000e+00
	5.000000000000000e+00
	-1.987358994037791e-08
	1.925537554326695e-02
	4.410000000000000e+00
	0.000000000000000e+00