Title: ** sch_path:
Date: Sun Mar 13 18:02:30  2022
Plotname: DC transfer characteristic
Flags: real
No. Variables: 21
No. Points: 501
Variables:
	0	v-sweep	voltage
	1	b	voltage
	2	d5v0	voltage
	3	i(e1)	current
	4	g5v0	voltage
	5	m.xm1.msky130_fd_pr__pfet_g5v0d10v5#body	voltage
	6	m.xm1.msky130_fd_pr__pfet_g5v0d10v5#dbody	voltage
	7	m.xm1.msky130_fd_pr__pfet_g5v0d10v5#sbody	voltage
	8	m.xm2.msky130_fd_pr__pfet_g5v0d10v5#body	voltage
	9	m.xm2.msky130_fd_pr__pfet_g5v0d10v5#dbody	voltage
	10	m.xm2.msky130_fd_pr__pfet_g5v0d10v5#sbody	voltage
	11	net1	voltage
	12	net2	voltage
	13	s	voltage
	14	i(vb)	current
	15	i(vd)	current
	16	vds	voltage
	17	i(vg)	current
	18	i(vp_long)	current
	19	i(vp_short)	current
	20	i(vs)	current
Values:
 0	0.000000000000000e+00
	5.000000000000000e+00
	0.000000000000000e+00
	0.000000000000000e+00
	0.000000000000000e+00
	4.999977579786253e+00
	4.999988789768121e+00
	4.999988789893124e+00
	4.999997723321559e+00
	4.999998861535772e+00
	4.999998861660778e+00
	5.000000000000000e+00
	5.000000000000000e+00
	5.000000000000000e+00
	-9.878806879332069e-07
	2.253923321139820e-02
	5.000000000000000e+00
	0.000000000000000e+00
	4.708268135004801e-03
	1.782997719578816e-02
	-2.253824533079296e-02

 1	1.000000000000000e-02
	5.000000000000000e+00
	1.000000000000000e-02
	0.000000000000000e+00
	0.000000000000000e+00
	4.999978749328986e+00
	4.999989374539737e+00
	4.999989374664491e+00
	4.999997755264971e+00
	4.999998877507728e+00
	4.999998877632485e+00
	5.000000000000000e+00
	5.000000000000000e+00
	5.000000000000000e+00
	-9.398212321570787e-07
	2.253172824482563e-02
	4.990000000000000e+00
	0.000000000000000e+00
	4.707724902459631e-03
	1.782306352129126e-02
	-2.253078842375089e-02

 2	2.000000000000000e-02
	5.000000000000000e+00
	2.000000000000000e-02
	0.000000000000000e+00
	0.000000000000000e+00
	4.999979864196637e+00
	4.999989931973813e+00
	4.999989932098316e+00
	4.999997787028728e+00
	4.999998893389856e+00
	4.999998893514363e+00
	5.000000000000000e+00
	5.000000000000000e+00
	5.000000000000000e+00
	-8.939559657805685e-07
	2.252420869316296e-02
	4.980000000000000e+00
	0.000000000000000e+00
	4.707179481442836e-03
	1.781613525599823e-02
	-2.252331473744107e-02

 3	3.000000000000000e-02
	5.000000000000000e+00
	3.000000000000000e-02
	0.000000000000000e+00
	0.000000000000000e+00
	4.999980926628892e+00
	4.999990463190191e+00
	4.999990463314443e+00
	4.999997818611595e+00
	4.999998909181540e+00
	4.999998909305797e+00
	5.000000000000000e+00
	5.000000000000000e+00
	5.000000000000000e+00
	-8.501953509265636e-07
	2.251667434722648e-02
	4.970000000000000e+00
	0.000000000000000e+00
	4.706631851149723e-03
	1.780919230077416e-02
	-2.251582415192388e-02

 4	4.000000000000000e-02
	5.000000000000000e+00
	4.000000000000000e-02
	0.000000000000000e+00
	0.000000000000000e+00
	4.999981938787816e+00
	4.999990969269902e+00
	4.999990969393906e+00
	4.999997850012336e+00
	4.999998924882160e+00
	4.999998925006167e+00
	5.000000000000000e+00
	5.000000000000000e+00
	5.000000000000000e+00
	-8.084529543594954e-07
	2.250912500028068e-02
	4.960000000000000e+00
	0.000000000000000e+00
	4.706081989979793e-03
	1.780223455727992e-02
	-2.250831654725971e-02

 5	5.000000000000000e-02
	5.000000000000000e+00
	5.000000000000000e-02
	0.000000000000000e+00
	0.000000000000000e+00
	4.999982902759976e+00
	4.999991451256232e+00
	4.999991451379985e+00
	4.999997881229702e+00
	4.999998940491093e+00
	4.999998940614850e+00
	5.000000000000000e+00
	5.000000000000000e+00
	5.000000000000000e+00
	-7.686453632471668e-07
	2.250156044793705e-02
	4.950000000000000e+00
	0.000000000000000e+00
	4.705529876559922e-03
	1.779526192638059e-02
	-2.250079180294051e-02

 6	6.000000000000000e-02
	5.000000000000000e+00
	6.000000000000000e-02
	0.000000000000000e+00
	0.000000000000000e+00
	4.999983820558551e+00
	4.999991910155770e+00
	4.999991910279273e+00
	4.999997912262439e+00
	4.999998956007712e+00
	4.999998956131218e+00
	5.000000000000000e+00
	5.000000000000000e+00
	5.000000000000000e+00
	-7.306921008393141e-07
	2.249398048804885e-02
	4.940000000000000e+00
	0.000000000000000e+00
	4.704975488607488e-03
	1.778827430780439e-02
	-2.249324979641187e-02

 7	7.000000000000001e-02
	5.000000000000000e+00
	7.000000000000001e-02
	0.000000000000000e+00
	0.000000000000000e+00
	4.999984694125375e+00
	4.999992346939432e+00
	4.999992347062685e+00
	4.999997943109295e+00
	4.999998971431390e+00
	4.999998971554646e+00
	5.000000000000000e+00
	5.000000000000000e+00
	5.000000000000000e+00
	-6.945155436033357e-07
	2.248638492061517e-02
	4.930000000000000e+00
	0.000000000000000e+00
	4.704418803271437e-03
	1.778127160196163e-02
	-2.248569040523307e-02

 8	8.000000000000000e-02
	5.000000000000000e+00
	8.000000000000000e-02
	0.000000000000000e+00
	0.000000000000000e+00
	4.999985525332976e+00
	4.999992762543481e+00
	4.999992762666485e+00
	4.999997973768999e+00
	4.999998986761492e+00
	4.999998986884499e+00
	5.000000000000000e+00
	5.000000000000000e+00
	5.000000000000000e+00
	-6.600408413715009e-07
	2.247877354765571e-02
	4.920000000000000e+00
	0.000000000000000e+00
	4.703859798496524e-03
	1.777425370835317e-02
	-2.247811350684970e-02

 9	9.000000000000000e-02
	5.000000000000000e+00
	9.000000000000000e-02
	0.000000000000000e+00
	0.000000000000000e+00
	4.999986315986540e+00
	4.999993157870514e+00
	4.999993157993267e+00
	4.999998004240284e+00
	4.999999001997384e+00
	4.999999002120141e+00
	5.000000000000000e+00
	5.000000000000000e+00
	5.000000000000000e+00
	-6.271958374465259e-07
	2.247114617314061e-02
	4.910000000000000e+00
	0.000000000000000e+00
	4.703298451545379e-03
	1.776722052602508e-02
	-2.247051897757046e-02

 10	9.999999999999999e-02
	5.000000000000000e+00
	9.999999999999999e-02
	0.000000000000000e+00
	0.000000000000000e+00
	4.999987067825858e+00
	4.999993533790423e+00
	4.999993533912926e+00
	4.999998034521870e+00
	4.999999017138427e+00
	4.999999017260934e+00
	5.000000000000000e+00
	5.000000000000000e+00
	5.000000000000000e+00
	-5.959109912606619e-07
	2.246350260286789e-02
	4.900000000000000e+00
	0.000000000000000e+00
	4.702734738430081e-03
	1.776017195334134e-02
	-2.246290669177142e-02

 11	1.100000000000000e-01
	5.000000000000000e+00
	1.100000000000000e-01
	0.000000000000000e+00
	0.000000000000000e+00
	4.999987782527218e+00
	4.999993891141353e+00
	4.999993891263607e+00
	4.999998064612477e+00
	4.999999032183981e+00
	4.999999032306238e+00
	5.000000000000000e+00
	5.000000000000000e+00
	5.000000000000000e+00
	-5.661193026168521e-07
	2.245584264434797e-02
	4.890000000000000e+00
	0.000000000000000e+00
	4.702168635844828e-03
	1.775310788946172e-02
	-2.245527652530654e-02

 12	1.200000000000000e-01
	5.000000000000000e+00
	1.200000000000000e-01
	0.000000000000000e+00
	0.000000000000000e+00
	4.999988461705277e+00
	4.999994230730632e+00
	4.999994230852636e+00
	4.999998094510816e+00
	4.999999047133400e+00
	4.999999047255407e+00
	5.000000000000000e+00
	5.000000000000000e+00
	5.000000000000000e+00
	-5.377562367070432e-07
	2.244816610679123e-02
	4.880000000000000e+00
	0.000000000000000e+00
	4.701600119801697e-03
	1.774602823104487e-02
	-2.244762835084657e-02

 13	1.300000000000000e-01
	5.000000000000000e+00
	1.300000000000000e-01
	0.000000000000000e+00
	0.000000000000000e+00
	4.999989106914875e+00
	4.999994553335681e+00
	4.999994553457435e+00
	4.999998124215597e+00
	4.999999061986040e+00
	4.999999062107797e+00
	5.000000000000000e+00
	5.000000000000000e+00
	5.000000000000000e+00
	-5.107596516146229e-07
	2.244047280088779e-02
	4.870000000000000e+00
	0.000000000000000e+00
	4.701029165289583e-03
	1.773893287577266e-02
	-2.243996204106224e-02

 14	1.400000000000000e-01
	5.000000000000000e+00
	1.400000000000000e-01
	0.000000000000000e+00
	0.000000000000000e+00
	4.999989719652822e+00
	4.999994859704906e+00
	4.999994859826408e+00
	4.999998153725520e+00
	4.999999076741252e+00
	4.999999076862759e+00
	5.000000000000000e+00
	5.000000000000000e+00
	5.000000000000000e+00
	-4.850697267744231e-07
	2.243276253882343e-02
	4.860000000000000e+00
	0.000000000000000e+00
	4.700455748320564e-03
	1.773182172098586e-02
	-2.243227746930643e-02

 15	1.500000000000000e-01
	5.000000000000000e+00
	1.500000000000000e-01
	0.000000000000000e+00
	0.000000000000000e+00
	4.999990301359650e+00
	4.999995150558568e+00
	4.999995150679823e+00
	4.999998183039280e+00
	4.999999091398383e+00
	4.999999091519639e+00
	5.000000000000000e+00
	5.000000000000000e+00
	5.000000000000000e+00
	-4.606288932090807e-07
	2.242503513413396e-02
	4.850000000000000e+00
	0.000000000000000e+00
	4.699879842974042e-03
	1.772469466197890e-02
	-2.242457450495294e-02

 16	1.600000000000000e-01
	5.000000000000000e+00
	1.600000000000000e-01
	0.000000000000000e+00
	0.000000000000000e+00
	4.999990853421305e+00
	4.999995426589646e+00
	4.999995426710649e+00
	4.999998212155575e+00
	4.999999105956780e+00
	4.999999106077786e+00
	5.000000000000000e+00
	5.000000000000000e+00
	5.000000000000000e+00
	-4.373817651531775e-07
	2.241729040160223e-02
	4.840000000000000e+00
	0.000000000000000e+00
	4.699301424579971e-03
	1.771755159552413e-02
	-2.241685302010410e-02

 17	1.700000000000000e-01
	5.000000000000000e+00
	1.700000000000000e-01
	0.000000000000000e+00
	0.000000000000000e+00
	4.999991377170846e+00
	4.999995688464667e+00
	4.999995688585420e+00
	4.999998241073084e+00
	4.999999120415785e+00
	4.999999120536541e+00
	5.000000000000000e+00
	5.000000000000000e+00
	5.000000000000000e+00
	-4.152750731623023e-07
	2.240952815722608e-02
	4.830000000000000e+00
	0.000000000000000e+00
	4.698720466649320e-03
	1.771039241566541e-02
	-2.240911288231473e-02

 18	1.800000000000000e-01
	5.000000000000000e+00
	1.800000000000000e-01
	0.000000000000000e+00
	0.000000000000000e+00
	4.999991873890052e+00
	4.999995936824520e+00
	4.999995936945023e+00
	4.999998269790496e+00
	4.999999134774741e+00
	4.999999134895248e+00
	5.000000000000000e+00
	5.000000000000000e+00
	5.000000000000000e+00
	-3.942575984433594e-07
	2.240174821804786e-02
	4.820000000000000e+00
	0.000000000000000e+00
	4.698136943034115e-03
	1.770321701781086e-02
	-2.240135396084497e-02

 19	1.900000000000000e-01
	5.000000000000000e+00
	1.900000000000000e-01
	0.000000000000000e+00
	0.000000000000000e+00
	4.999992344811036e+00
	4.999996172285263e+00
	4.999996172405515e+00
	4.999998298306491e+00
	4.999999149032988e+00
	4.999999149153245e+00
	5.000000000000000e+00
	5.000000000000000e+00
	5.000000000000000e+00
	-3.742801092943004e-07
	2.239395040216152e-02
	4.810000000000000e+00
	0.000000000000000e+00
	4.697550826335828e-03
	1.769602529577696e-02
	-2.239357612211279e-02

 20	2.000000000000000e-01
	5.000000000000000e+00
	2.000000000000000e-01
	0.000000000000000e+00
	0.000000000000000e+00
	4.999992791117811e+00
	4.999996395438900e+00
	4.999996395558902e+00
	4.999998326619741e+00
	4.999999163189862e+00
	4.999999163309869e+00
	5.000000000000000e+00
	5.000000000000000e+00
	5.000000000000000e+00
	-3.552952982793789e-07
	2.238613452853144e-02
	4.800000000000000e+00
	0.000000000000000e+00
	4.696962090633860e-03
	1.768881714281179e-02
	-2.238577923344565e-02

 21	2.100000000000000e-01
	5.000000000000000e+00
	2.100000000000000e-01
	0.000000000000000e+00
	0.000000000000000e+00
	4.999993213947802e+00
	4.999996606854145e+00
	4.999996606973898e+00
	4.999998354728920e+00
	4.999999177244701e+00
	4.999999177364459e+00
	5.000000000000000e+00
	5.000000000000000e+00
	5.000000000000000e+00
	-3.372577214583172e-07
	2.237830041699596e-02
	4.790000000000000e+00
	0.000000000000000e+00
	4.696370707165443e-03
	1.768159245250445e-02
	-2.237796315966989e-02

 22	2.200000000000001e-01
	5.000000000000000e+00
	2.200000000000001e-01
	0.000000000000000e+00
	0.000000000000000e+00
	4.999993614393350e+00
	4.999996807077169e+00
	4.999996807196672e+00
	4.999998382632696e+00
	4.999999191196840e+00
	4.999999191316347e+00
	5.000000000000000e+00
	5.000000000000000e+00
	5.000000000000000e+00
	-3.201237385452860e-07
	2.237044788811460e-02
	4.780000000000000e+00
	0.000000000000000e+00
	4.695776648418359e-03
	1.767435111594295e-02
	-2.237012776436131e-02

 23	2.300000000000001e-01
	5.000000000000000e+00
	2.300000000000001e-01
	0.000000000000000e+00
	0.000000000000000e+00
	4.999993993503162e+00
	4.999996996632325e+00
	4.999996996751578e+00
	4.999998410329736e+00
	4.999999205045610e+00
	4.999999205164867e+00
	5.000000000000000e+00
	5.000000000000000e+00
	5.000000000000000e+00
	-3.038514544417836e-07
	2.236257676310771e-02
	4.770000000000000e+00
	0.000000000000000e+00
	4.695179886084588e-03
	1.766709302592062e-02
	-2.236227291200521e-02

 24	2.400000000000001e-01
	5.000000000000000e+00
	2.400000000000001e-01
	0.000000000000000e+00
	0.000000000000000e+00
	4.999994352283738e+00
	4.999997176022863e+00
	4.999997176141866e+00
	4.999998437818699e+00
	4.999999218790341e+00
	4.999999218909348e+00
	5.000000000000000e+00
	5.000000000000000e+00
	5.000000000000000e+00
	-2.884006629622071e-07
	2.235468686380671e-02
	4.760000000000000e+00
	0.000000000000000e+00
	4.694580391173986e-03
	1.765981807238859e-02
	-2.235439846356257e-02

 25	2.500000000000001e-01
	5.000000000000000e+00
	2.500000000000001e-01
	0.000000000000000e+00
	0.000000000000000e+00
	4.999994691700755e+00
	4.999997345731622e+00
	4.999997345850375e+00
	4.999998465098249e+00
	4.999999232430367e+00
	4.999999232549124e+00
	5.000000000000000e+00
	5.000000000000000e+00
	5.000000000000000e+00
	-2.737327901569664e-07
	2.234677801254037e-02
	4.750000000000000e+00
	0.000000000000000e+00
	4.693978133786914e-03
	1.765252614620749e-02
	-2.234650427999441e-02

 26	2.600000000000001e-01
	5.000000000000000e+00
	2.600000000000001e-01
	0.000000000000000e+00
	0.000000000000000e+00
	4.999995012680425e+00
	4.999997506221707e+00
	4.999997506340209e+00
	4.999998492167043e+00
	4.999999245965014e+00
	4.999999246083521e+00
	5.000000000000000e+00
	5.000000000000000e+00
	5.000000000000000e+00
	-2.598108416462797e-07
	2.233885003202118e-02
	4.740000000000000e+00
	0.000000000000000e+00
	4.693373084478480e-03
	1.764521713676004e-02
	-2.233859022123852e-02

 27	2.700000000000001e-01
	5.000000000000000e+00
	2.700000000000001e-01
	0.000000000000000e+00
	0.000000000000000e+00
	4.999995316110811e+00
	4.999997657937150e+00
	4.999997658055403e+00
	4.999998519023737e+00
	4.999999259393611e+00
	4.999999259511868e+00
	5.000000000000000e+00
	5.000000000000000e+00
	5.000000000000000e+00
	-2.465993483302675e-07
	2.233090274535954e-02
	4.730000000000000e+00
	0.000000000000000e+00
	4.692765213121675e-03
	1.763789093308787e-02
	-2.233065614620955e-02

 28	2.800000000000001e-01
	5.000000000000000e+00
	2.800000000000001e-01
	0.000000000000000e+00
	0.000000000000000e+00
	4.999995602843128e+00
	4.999997801303557e+00
	4.999997801421561e+00
	4.999998545666990e+00
	4.999999272715487e+00
	4.999999272833494e+00
	5.000000000000000e+00
	5.000000000000000e+00
	5.000000000000000e+00
	-2.340643157211497e-07
	2.232293597591450e-02
	4.720000000000000e+00
	0.000000000000000e+00
	4.692154488338929e-03
	1.763054742332315e-02
	-2.232270191166208e-02

 29	2.900000000000001e-01
	5.000000000000000e+00
	2.900000000000001e-01
	0.000000000000000e+00
	0.000000000000000e+00
	4.999995873692978e+00
	4.999997936728732e+00
	4.999997936846486e+00
	4.999998572095451e+00
	4.999999285929968e+00
	4.999999286047725e+00
	5.000000000000000e+00
	5.000000000000000e+00
	5.000000000000000e+00
	-2.221731732615639e-07
	2.231494954725832e-02
	4.710000000000000e+00
	0.000000000000000e+00
	4.691540879434797e-03
	1.762318649491590e-02
	-2.231472737435070e-02

 30	3.000000000000001e-01
	5.000000000000000e+00
	3.000000000000001e-01
	0.000000000000000e+00
	0.000000000000000e+00
	4.999996129441596e+00
	4.999998064603292e+00
	4.999998064720796e+00
	4.999998598307776e+00
	4.999999299036380e+00
	4.999999299153887e+00
	5.000000000000000e+00
	5.000000000000000e+00
	5.000000000000000e+00
	-2.108947254747529e-07
	2.230694328304139e-02
	4.700000000000000e+00
	0.000000000000000e+00
	4.690924354008530e-03
	1.761580803452034e-02
	-2.230673238852887e-02

 31	3.100000000000001e-01
	5.000000000000000e+00
	3.100000000000001e-01
	0.000000000000000e+00
	0.000000000000000e+00
	4.999996370837033e+00
	4.999998185301260e+00
	4.999998185418514e+00
	4.999998624302620e+00
	4.999999312034053e+00
	4.999999312151309e+00
	5.000000000000000e+00
	5.000000000000000e+00
	5.000000000000000e+00
	-2.001991042388518e-07
	2.229891700697095e-02
	4.690000000000000e+00
	0.000000000000000e+00
	4.690304879886753e-03
	1.760841192822227e-02
	-2.229871680810902e-02

 32	3.200000000000001e-01
	5.000000000000000e+00
	3.200000000000001e-01
	0.000000000000000e+00
	0.000000000000000e+00
	4.999996598595310e+00
	4.999998299180649e+00
	4.999998299297652e+00
	4.999998650078634e+00
	4.999999324922309e+00
	4.999999325039316e+00
	5.000000000000000e+00
	5.000000000000000e+00
	5.000000000000000e+00
	-1.900577226432443e-07
	2.229087054275425e-02
	4.680000000000000e+00
	0.000000000000000e+00
	4.689682424100283e-03
	1.760099806097060e-02
	-2.229068048507088e-02

 33	3.300000000000001e-01
	5.000000000000000e+00
	3.300000000000001e-01
	0.000000000000000e+00
	0.000000000000000e+00
	4.999996813401569e+00
	4.999998406584028e+00
	4.999998406700781e+00
	4.999998675634476e+00
	4.999999337700480e+00
	4.999999337817237e+00
	5.000000000000000e+00
	5.000000000000000e+00
	5.000000000000000e+00
	-1.804432286228730e-07
	2.228280371397062e-02
	4.670000000000000e+00
	0.000000000000000e+00
	4.689056953225190e-03
	1.759356631760056e-02
	-2.228262327082575e-02

 34	3.400000000000001e-01
	5.000000000000000e+00
	3.400000000000001e-01
	0.000000000000000e+00
	0.000000000000000e+00
	4.999997015911158e+00
	4.999998507839074e+00
	4.999998507955576e+00
	4.999998700968800e+00
	4.999999350367892e+00
	4.999999350484400e+00
	5.000000000000000e+00
	5.000000000000000e+00
	5.000000000000000e+00
	-1.713294619509753e-07
	2.227471634404310e-02
	4.660000000000000e+00
	0.000000000000000e+00
	4.688428433041736e-03
	1.758611658169684e-02
	-2.227454501473858e-02

 35	3.500000000000001e-01
	5.000000000000000e+00
	3.500000000000001e-01
	0.000000000000000e+00
	0.000000000000000e+00
	4.999997206750706e+00
	4.999998603259098e+00
	4.999998603375350e+00
	4.999998726080262e+00
	4.999999362923873e+00
	4.999999363040130e+00
	5.000000000000000e+00
	5.000000000000000e+00
	5.000000000000000e+00
	-1.626914115926414e-07
	2.226660825609628e-02
	4.649999999999999e+00
	0.000000000000000e+00
	4.687796829443869e-03
	1.757864873559356e-02
	-2.226644556503743e-02

 36	3.600000000000002e-01
	5.000000000000000e+00
	3.600000000000002e-01
	0.000000000000000e+00
	0.000000000000000e+00
	4.999997386519169e+00
	4.999998693143579e+00
	4.999998693259582e+00
	4.999998750967525e+00
	4.999999375367755e+00
	4.999999375483762e+00
	5.000000000000000e+00
	5.000000000000000e+00
	5.000000000000000e+00
	-1.545051725032609e-07
	2.225847927298474e-02
	4.640000000000000e+00
	0.000000000000000e+00
	4.687162106506548e-03
	1.757116266151115e-02
	-2.225832476801770e-02

 37	3.700000000000002e-01
	5.000000000000000e+00
	3.700000000000002e-01
	0.000000000000000e+00
	0.000000000000000e+00
	4.999997555788847e+00
	4.999998777778668e+00
	4.999998777894421e+00
	4.999998775629249e+00
	4.999999387698868e+00
	4.999999387814624e+00
	5.000000000000000e+00
	5.000000000000000e+00
	5.000000000000000e+00
	-1.467479064654054e-07
	2.225032921722914e-02
	4.630000000000000e+00
	0.000000000000000e+00
	4.686524228532107e-03
	1.756365824053319e-02
	-2.225018246906529e-02

 38	3.800000000000002e-01
	5.000000000000000e+00
	3.800000000000002e-01
	0.000000000000000e+00
	0.000000000000000e+00
	4.999997715106352e+00
	4.999998857437671e+00
	4.999998857553173e+00
	4.999998800064102e+00
	4.999999399916543e+00
	4.999999400032050e+00
	5.000000000000000e+00
	5.000000000000000e+00
	5.000000000000000e+00
	-1.393978021485553e-07
	2.224215791076745e-02
	4.620000000000000e+00
	0.000000000000000e+00
	4.685883160050253e-03
	1.755613535328848e-02
	-2.224201851333873e-02

 39	3.900000000000002e-01
	5.000000000000000e+00
	3.900000000000002e-01
	0.000000000000000e+00
	0.000000000000000e+00
	4.999997864993590e+00
	4.999998932381539e+00
	4.999998932496792e+00
	4.999998824270753e+00
	4.999999412020118e+00
	4.999999412135375e+00
	5.000000000000000e+00
	5.000000000000000e+00
	5.000000000000000e+00
	-1.324340367231391e-07
	2.223396517511844e-02
	4.609999999999999e+00
	0.000000000000000e+00
	4.685238862748520e-03
	1.754859387858687e-02
	-2.223383274133539e-02

 40	4.000000000000002e-01
	5.000000000000000e+00
	4.000000000000002e-01
	0.000000000000000e+00
	0.000000000000000e+00
	4.999998005948671e+00
	4.999999002859330e+00
	4.999999002974333e+00
	4.999998848247874e+00
	4.999999424008930e+00
	4.999999424123937e+00
	5.000000000000000e+00
	5.000000000000000e+00
	5.000000000000000e+00
	-1.258367385709169e-07
	2.222575083121114e-02
	4.600000000000000e+00
	0.000000000000000e+00
	4.684591299565000e-03
	1.754103369512450e-02
	-2.222562499468950e-02

 41	4.100000000000002e-01
	5.000000000000000e+00
	4.100000000000002e-01
	0.000000000000000e+00
	0.000000000000000e+00
	4.999998138446826e+00
	4.999999069108657e+00
	4.999999069223410e+00
	4.999998871994144e+00
	4.999999435882314e+00
	4.999999435997071e+00
	5.000000000000000e+00
	5.000000000000000e+00
	5.000000000000000e+00
	-1.195869515496772e-07
	2.221751469920719e-02
	4.590000000000000e+00
	0.000000000000000e+00
	4.683940432414602e-03
	1.753345468011958e-02
	-2.221739511253418e-02

 42	4.200000000000002e-01
	5.000000000000000e+00
	4.200000000000002e-01
	0.000000000000000e+00
	0.000000000000000e+00
	4.999998262941278e+00
	4.999999131356134e+00
	4.999999131470636e+00
	4.999998895508253e+00
	4.999999447639619e+00
	4.999999447754126e+00
	5.000000000000000e+00
	5.000000000000000e+00
	5.000000000000000e+00
	-1.136665991330332e-07
	2.220925659865713e-02
	4.580000000000000e+00
	0.000000000000000e+00
	4.683286221506933e-03
	1.752585671101770e-02
	-2.220914293252463e-02

 43	4.300000000000002e-01
	5.000000000000000e+00
	4.300000000000002e-01
	0.000000000000000e+00
	0.000000000000000e+00
	4.999998379864092e+00
	4.999999189817791e+00
	4.999999189932043e+00
	4.999998918788892e+00
	4.999999459280188e+00
	4.999999459394445e+00
	5.000000000000000e+00
	5.000000000000000e+00
	5.000000000000000e+00
	-1.080584510759763e-07
	2.220097634831575e-02
	4.569999999999999e+00
	0.000000000000000e+00
	4.682628627620034e-03
	1.751823966253596e-02
	-2.220086829015600e-02

 44	4.400000000000002e-01
	5.000000000000000e+00
	4.400000000000002e-01
	0.000000000000000e+00
	0.000000000000000e+00
	4.999998489627002e+00
	4.999999244699495e+00
	4.999999244813498e+00
	4.999998941834752e+00
	4.999999470803369e+00
	4.999999470917375e+00
	5.000000000000000e+00
	5.000000000000000e+00
	5.000000000000000e+00
	-1.027460902885968e-07
	2.219267376605671e-02
	4.560000000000000e+00
	0.000000000000000e+00
	4.681967610054016e-03
	1.751060340973254e-02
	-2.219257101978656e-02

 45	4.500000000000002e-01
	5.000000000000000e+00
	4.500000000000002e-01
	0.000000000000000e+00
	0.000000000000000e+00
	4.999998592622218e+00
	4.999999296197353e+00
	4.999999296311106e+00
	4.999998964644549e+00
	4.999999482208517e+00
	4.999999482322274e+00
	5.000000000000000e+00
	5.000000000000000e+00
	5.000000000000000e+00
	-9.771387975143764e-08
	2.218434866877317e-02
	4.550000000000000e+00
	0.000000000000000e+00
	4.681303127995307e-03
	1.750294782721085e-02
	-2.218425095520615e-02

 46	4.600000000000002e-01
	5.000000000000000e+00
	4.600000000000002e-01
	0.000000000000000e+00
	0.000000000000000e+00
	4.999998689223191e+00
	4.999999344498089e+00
	4.999999344611593e+00
	4.999998987216996e+00
	4.999999493494990e+00
	4.999999493608497e+00
	5.000000000000000e+00
	5.000000000000000e+00
	5.000000000000000e+00
	-9.294693287253963e-08
	2.217600087247718e-02
	4.540000000000000e+00
	0.000000000000000e+00
	4.680635139379774e-03
	1.749527278627738e-02
	-2.217590792565716e-02

 47	4.700000000000003e-01
	5.000000000000000e+00
	4.700000000000003e-01
	0.000000000000000e+00
	0.000000000000000e+00
	4.999998779785379e+00
	4.999999389779433e+00
	4.999999389892687e+00
	4.999999009550814e+00
	4.999999504662149e+00
	4.999999504775406e+00
	5.000000000000000e+00
	5.000000000000000e+00
	5.000000000000000e+00
	-8.843108270650823e-08
	2.216763019202972e-02
	4.529999999999999e+00
	0.000000000000000e+00
	4.679963601347481e-03
	1.748757815960289e-02
	-2.216754176095037e-02

 48	4.800000000000003e-01
	5.000000000000000e+00
	4.800000000000003e-01
	0.000000000000000e+00
	0.000000000000000e+00
	4.999998864646964e+00
	4.999999432210476e+00
	4.999999432323479e+00
	4.999999031644743e+00
	4.999999515709364e+00
	4.999999515822370e+00
	5.000000000000000e+00
	5.000000000000000e+00
	5.000000000000000e+00
	-8.415285211726964e-08
	2.215923644131124e-02
	4.520000000000000e+00
	0.000000000000000e+00
	4.679288470811116e-03
	1.747986381792543e-02
	-2.215915228873655e-02

 49	4.900000000000003e-01
	5.000000000000000e+00
	4.900000000000003e-01
	0.000000000000000e+00
	0.000000000000000e+00
	4.999998944129560e+00
	4.999999471952024e+00
	4.999999472064777e+00
	4.999999053497528e+00
	4.999999526636007e+00
	4.999999526748763e+00
	5.000000000000000e+00
	5.000000000000000e+00
	5.000000000000000e+00
	-8.009942684128468e-08
	2.215081943280950e-02
	4.510000000000000e+00
	0.000000000000000e+00
	4.678609703432812e-03
	1.747212963016409e-02
	-2.215073933359690e-02

 50	5.000000000000002e-01
	5.000000000000000e+00
	5.000000000000002e-01
	0.000000000000000e+00
	0.000000000000000e+00
	4.999999018538904e+00
	4.999999509156947e+00
	4.999999509269450e+00
	4.999999075107929e+00
	4.999999537441457e+00
	4.999999537553963e+00
	5.000000000000000e+00
	5.000000000000000e+00
	5.000000000000000e+00
	-7.625862707971720e-08
	2.214237897806015e-02
	4.500000000000000e+00
	0.000000000000000e+00
	4.677927253965208e-03
	1.746437546535162e-02
	-2.214230271931683e-02

 51	5.100000000000002e-01
	5.000000000000000e+00
	5.100000000000002e-01
	0.000000000000000e+00
	0.000000000000000e+00
	4.999999088165510e+00
	4.999999543970500e+00
	4.999999544082753e+00
	4.999999096474713e+00
	4.999999548125099e+00
	4.999999548237356e+00
	5.000000000000000e+00
	5.000000000000000e+00
	5.000000000000000e+00
	-7.261888143594852e-08
	2.213391488699301e-02
	4.490000000000000e+00
	0.000000000000000e+00
	4.677241076819882e-03
	1.745660119138392e-02
	-2.213384226820381e-02

 52	5.200000000000002e-01
	5.000000000000000e+00
	5.200000000000002e-01
	0.000000000000000e+00
	0.000000000000000e+00
	4.999999153285305e+00
	4.999999576530646e+00
	4.999999576642650e+00
	4.999999117596674e+00
	4.999999558686330e+00
	4.999999558798336e+00
	5.000000000000000e+00
	5.000000000000000e+00
	5.000000000000000e+00
	-6.916920115840330e-08
	2.212542696842945e-02
	4.480000000000000e+00
	0.000000000000000e+00
	4.676551125157857e-03
	1.744880667411053e-02
	-2.212535779926839e-02

 53	5.300000000000002e-01
	5.000000000000000e+00
	5.300000000000002e-01
	0.000000000000000e+00
	0.000000000000000e+00
	4.999999214160264e+00
	4.999999606968377e+00
	4.999999607080129e+00
	4.999999138472607e+00
	4.999999569124546e+00
	4.999999569236303e+00
	5.000000000000000e+00
	5.000000000000000e+00
	5.000000000000000e+00
	-6.589915547972058e-08
	2.211691502954238e-02
	4.470000000000000e+00
	0.000000000000000e+00
	4.675857351116974e-03
	1.744099177938097e-02
	-2.211684913049794e-02

 54	5.400000000000003e-01
	5.000000000000000e+00
	5.400000000000003e-01
	0.000000000000000e+00
	0.000000000000000e+00
	4.999999271038985e+00
	4.999999635407987e+00
	4.999999635519490e+00
	4.999999159101332e+00
	4.999999579439159e+00
	4.999999579550665e+00
	5.000000000000000e+00
	5.000000000000000e+00
	5.000000000000000e+00
	-6.279884760818089e-08
	2.210837887611206e-02
	4.460000000000000e+00
	0.000000000000000e+00
	4.675159706835075e-03
	1.743315637099840e-02
	-2.210831607783348e-02

 55	5.500000000000003e-01
	5.000000000000000e+00
	5.500000000000003e-01
	0.000000000000000e+00
	0.000000000000000e+00
	4.999999324157284e+00
	4.999999661967387e+00
	4.999999662078640e+00
	4.999999179481683e+00
	4.999999589629583e+00
	4.999999589740840e+00
	5.000000000000000e+00
	5.000000000000000e+00
	5.000000000000000e+00
	-5.985889164894509e-08
	2.209981831241237e-02
	4.449999999999999e+00
	0.000000000000000e+00
	4.674458142062576e-03
	1.742530031197020e-02
	-2.209975845403278e-02

 56	5.600000000000003e-01
	5.000000000000000e+00
	5.600000000000003e-01
	0.000000000000000e+00
	0.000000000000000e+00
	4.999999373738745e+00
	4.999999686758366e+00
	4.999999686869369e+00
	4.999999199612510e+00
	4.999999599695247e+00
	4.999999599806254e+00
	5.000000000000000e+00
	5.000000000000000e+00
	5.000000000000000e+00
	-5.707039020530491e-08
	2.209123314094086e-02
	4.440000000000000e+00
	0.000000000000000e+00
	4.673752606777271e-03
	1.741742346359842e-02
	-2.209117607037570e-02

 57	5.700000000000003e-01
	5.000000000000000e+00
	5.700000000000003e-01
	0.000000000000000e+00
	0.000000000000000e+00
	4.999999419995258e+00
	4.999999709886874e+00
	4.999999709997626e+00
	4.999999219492686e+00
	4.999999609635585e+00
	4.999999609746342e+00
	5.000000000000000e+00
	5.000000000000000e+00
	5.000000000000000e+00
	-5.442491254892268e-08
	2.208262316263188e-02
	4.430000000000000e+00
	0.000000000000000e+00
	4.673043049706394e-03
	1.740952568798093e-02
	-2.208256873768732e-02

 58	5.800000000000003e-01
	5.000000000000000e+00
	5.800000000000003e-01
	0.000000000000000e+00
	0.000000000000000e+00
	4.999999463127542e+00
	4.999999731453265e+00
	4.999999731563769e+00
	4.999999239121106e+00
	4.999999619450046e+00
	4.999999619560552e+00
	5.000000000000000e+00
	5.000000000000000e+00
	5.000000000000000e+00
	-5.191447439989449e-08
	2.207398817661499e-02
	4.420000000000000e+00
	0.000000000000000e+00
	4.672329418781374e-03
	1.740160684357761e-02
	-2.207393626235898e-02

 59	5.900000000000003e-01
	5.000000000000000e+00
	5.900000000000003e-01
	0.000000000000000e+00
	0.000000000000000e+00
	4.999999503325640e+00
	4.999999751552564e+00
	4.999999751662817e+00
	4.999999258496683e+00
	4.999999629138084e+00
	4.999999629248340e+00
	5.000000000000000e+00
	5.000000000000000e+00
	5.000000000000000e+00
	-4.953151751252438e-08
	2.206532798021499e-02
	4.410000000000000e+00
	0.000000000000000e+00