Title: ** sch_path:
Date: Sun Mar 20 21:17:08  2022
Plotname: DC transfer characteristic
Flags: real
No. Variables: 21
No. Points: 501
Variables:
	0	v-sweep	voltage
	1	b	voltage
	2	d5v0	voltage
	3	i(e1)	current
	4	g5v0	voltage
	5	m.xm1.msky130_fd_pr__pfet_g5v0d10v5#body	voltage
	6	m.xm1.msky130_fd_pr__pfet_g5v0d10v5#dbody	voltage
	7	m.xm1.msky130_fd_pr__pfet_g5v0d10v5#sbody	voltage
	8	m.xm2.msky130_fd_pr__pfet_g5v0d10v5#body	voltage
	9	m.xm2.msky130_fd_pr__pfet_g5v0d10v5#dbody	voltage
	10	m.xm2.msky130_fd_pr__pfet_g5v0d10v5#sbody	voltage
	11	net1	voltage
	12	net2	voltage
	13	s	voltage
	14	i(vb)	current
	15	i(vd)	current
	16	i(vg)	current
	17	vgs	voltage
	18	i(vp_long)	current
	19	i(vp_short)	current
	20	i(vs)	current
Values:
 0	0.000000000000000e+00
	5.000000000000000e+00
	0.000000000000000e+00
	0.000000000000000e+00
	0.000000000000000e+00
	4.999977579786253e+00
	4.999988789768121e+00
	4.999988789893124e+00
	4.999999999895258e+00
	4.999999999822621e+00
	4.999999999947629e+00
	5.000000000000000e+00
	5.000000000000000e+00
	5.000000000000000e+00
	-8.968177399315547e-07
	1.969898039596794e-02
	0.000000000000000e+00
	5.000000000000000e+00
	1.868106382630685e-03
	1.782997719578816e-02
	-1.969808357841885e-02

 1	1.000000000000000e-02
	5.000000000000000e+00
	0.000000000000000e+00
	0.000000000000000e+00
	1.000000000000000e-02
	4.999977244936894e+00
	4.999988622343441e+00
	4.999988622468445e+00
	4.999999999889662e+00
	4.999999999819823e+00
	4.999999999944831e+00
	5.000000000000000e+00
	5.000000000000000e+00
	5.000000000000000e+00
	-9.102119381265705e-07
	1.963738563667692e-02
	0.000000000000000e+00
	4.990000000000000e+00
	1.860016744444692e-03
	1.777645868048694e-02
	-1.963647542493163e-02

 2	2.000000000000000e-02
	5.000000000000000e+00
	0.000000000000000e+00
	0.000000000000000e+00
	2.000000000000000e-02
	4.999976902266869e+00
	4.999988451008429e+00
	4.999988451133432e+00
	4.999999999882617e+00
	4.999999999816300e+00
	4.999999999941308e+00
	5.000000000000000e+00
	5.000000000000000e+00
	5.000000000000000e+00
	-9.239190210119652e-07
	1.957585071530621e-02
	0.000000000000000e+00
	4.980000000000000e+00
	1.851954641097109e-03
	1.772297215552499e-02
	-1.957492679662209e-02

 3	3.000000000000000e-02
	5.000000000000000e+00
	0.000000000000000e+00
	0.000000000000000e+00
	3.000000000000000e-02
	4.999976557599384e+00
	4.999988278674686e+00
	4.999988278799689e+00
	4.999999999875082e+00
	4.999999999812533e+00
	4.999999999937541e+00
	5.000000000000000e+00
	5.000000000000000e+00
	5.000000000000000e+00
	-9.377060217752309e-07
	1.951433083702441e-02
	0.000000000000000e+00
	4.970000000000000e+00
	1.843899448545017e-03
	1.766949368254700e-02
	-1.951339313109202e-02

 4	4.000000000000000e-02
	5.000000000000000e+00
	0.000000000000000e+00
	0.000000000000000e+00
	4.000000000000000e-02
	4.999976208955830e+00
	4.999988104352909e+00
	4.999988104477913e+00
	4.999999999866621e+00
	4.999999999808303e+00
	4.999999999933311e+00
	5.000000000000000e+00
	5.000000000000000e+00
	5.000000000000000e+00
	-9.516521023711366e-07
	1.945284100811584e-02
	0.000000000000000e+00
	4.960000000000000e+00
	1.835858065192042e-03
	1.761603129068590e-02
	-1.945188935587794e-02

 5	5.000000000000000e-02
	5.000000000000000e+00
	0.000000000000000e+00
	0.000000000000000e+00
	5.000000000000000e-02
	4.999975856308112e+00
	4.999987928029050e+00
	4.999987928154054e+00
	4.999999999857135e+00
	4.999999999803560e+00
	4.999999999928567e+00
	5.000000000000000e+00
	5.000000000000000e+00
	5.000000000000000e+00
	-9.657583905503531e-07
	1.939138128492829e-02
	0.000000000000000e+00
	4.950000000000000e+00
	1.827830509455453e-03
	1.756258501734465e-02
	-1.939041552680010e-02

 6	6.000000000000000e-02
	5.000000000000000e+00
	0.000000000000000e+00
	0.000000000000000e+00
	6.000000000000000e-02
	4.999975499628183e+00
	4.999987749689086e+00
	4.999987749814089e+00
	4.999999999846506e+00
	4.999999999798245e+00
	4.999999999923253e+00
	5.000000000000000e+00
	5.000000000000000e+00
	5.000000000000000e+00
	-9.800260127729166e-07
	1.932995172409310e-02
	0.000000000000000e+00
	4.940000000000000e+00
	1.819816797933527e-03
	1.750915490015359e-02
	-1.932897169808712e-02

 7	7.000000000000001e-02
	5.000000000000000e+00
	0.000000000000000e+00
	0.000000000000000e+00
	7.000000000000001e-02
	4.999975138888052e+00
	4.999987569319020e+00
	4.999987569444023e+00
	4.999999999834622e+00
	4.999999999792303e+00
	4.999999999917311e+00
	5.000000000000000e+00
	5.000000000000000e+00
	5.000000000000000e+00
	-9.944560933061730e-07
	1.926855238253291e-02
	0.000000000000000e+00
	4.930000000000000e+00
	1.811816948816158e-03
	1.745574097765257e-02
	-1.926755792646873e-02

 8	8.000000000000000e-02
	5.000000000000000e+00
	0.000000000000000e+00
	0.000000000000000e+00
	8.000000000000000e-02
	4.999974774059790e+00
	4.999987386904889e+00
	4.999987387029892e+00
	4.999999999821346e+00
	4.999999999785665e+00
	4.999999999910673e+00
	5.000000000000000e+00
	5.000000000000000e+00
	5.000000000000000e+00
	-1.009049754946423e-06
	1.920718331746952e-02
	0.000000000000000e+00
	4.920000000000000e+00
	1.803830980293242e-03
	1.740234328747192e-02
	-1.920617426776516e-02

 9	9.000000000000000e-02
	5.000000000000000e+00
	0.000000000000000e+00
	0.000000000000000e+00
	9.000000000000000e-02
	4.999974405115530e+00
	4.999987202432759e+00
	4.999987202557762e+00
	4.999999999806540e+00
	4.999999999778262e+00
	4.999999999903269e+00
	5.000000000000000e+00
	5.000000000000000e+00
	5.000000000000000e+00
	-1.023808117603386e-06
	1.914584458643174e-02
	0.000000000000000e+00
	4.910000000000000e+00
	1.795858909076742e-03
	1.734896186940205e-02
	-1.914482077847879e-02

 10	9.999999999999999e-02
	5.000000000000000e+00
	0.000000000000000e+00
	0.000000000000000e+00
	9.999999999999999e-02
	4.999974032027475e+00
	4.999987015888731e+00
	4.999987016013734e+00
	4.999999999790044e+00
	4.999999999770014e+00
	4.999999999895022e+00
	5.000000000000000e+00
	5.000000000000000e+00
	5.000000000000000e+00
	-1.038732299632472e-06
	1.908453624726332e-02
	0.000000000000000e+00
	4.900000000000000e+00
	1.787900753356553e-03
	1.729559676175541e-02
	-1.908349751511196e-02

 11	1.100000000000000e-01
	5.000000000000000e+00
	0.000000000000000e+00
	0.000000000000000e+00
	1.100000000000000e-01
	4.999973654767898e+00
	4.999986827258944e+00
	4.999986827383946e+00
	4.999999999771695e+00
	4.999999999760839e+00
	4.999999999885847e+00
	5.000000000000000e+00
	5.000000000000000e+00
	5.000000000000000e+00
	-1.053823416669042e-06
	1.902325835813072e-02
	0.000000000000000e+00
	4.890000000000000e+00
	1.779956530526761e-03
	1.724224800466345e-02
	-1.902220453519021e-02

 12	1.200000000000000e-01
	5.000000000000000e+00
	0.000000000000000e+00
	0.000000000000000e+00
	1.200000000000000e-01
	4.999973273309154e+00
	4.999986636529571e+00
	4.999986636654574e+00
	4.999999999751306e+00
	4.999999999750645e+00
	4.999999999875652e+00
	5.000000000000000e+00
	5.000000000000000e+00
	5.000000000000000e+00
	-1.069082582016989e-06
	1.896201097753101e-02
	0.000000000000000e+00
	4.880000000000000e+00
	1.772026257299331e-03
	1.718891563780289e-02
	-1.896094189510222e-02

 13	1.300000000000000e-01
	5.000000000000000e+00
	0.000000000000000e+00
	0.000000000000000e+00
	1.300000000000000e-01
	4.999972887623677e+00
	4.999986443686833e+00
	4.999986443811835e+00
	4.999999999728680e+00
	4.999999999739332e+00
	4.999999999864341e+00
	5.000000000000000e+00
	5.000000000000000e+00
	5.000000000000000e+00
	-1.084510906093628e-06
	1.890079416429978e-02
	0.000000000000000e+00
	4.870000000000000e+00
	1.764109952091530e-03
	1.713559970141887e-02
	-1.889970965351040e-02

 14	1.400000000000000e-01
	5.000000000000000e+00
	0.000000000000000e+00
	0.000000000000000e+00
	1.400000000000000e-01
	4.999972497683991e+00
	4.999986248716990e+00
	4.999986248841992e+00
	4.999999999703602e+00
	4.999999999726793e+00
	4.999999999851801e+00
	5.000000000000000e+00
	5.000000000000000e+00
	5.000000000000000e+00
	-1.100109496693369e-06
	1.883960797761897e-02
	0.000000000000000e+00
	4.860000000000000e+00
	1.756207631729012e-03
	1.708230023632495e-02
	-1.883850786805397e-02

 15	1.500000000000000e-01
	5.000000000000000e+00
	0.000000000000000e+00
	0.000000000000000e+00
	1.500000000000000e-01
	4.999972103462707e+00
	4.999986051606347e+00
	4.999986051731351e+00
	4.999999999675839e+00
	4.999999999712911e+00
	4.999999999837919e+00
	5.000000000000000e+00
	5.000000000000000e+00
	5.000000000000000e+00
	-1.115879458585267e-06
	1.877845247702474e-02
	0.000000000000000e+00
	4.850000000000000e+00
	1.748319314174296e-03
	1.702901728390316e-02
	-1.877733659807745e-02

 16	1.600000000000000e-01
	5.000000000000000e+00
	0.000000000000000e+00
	0.000000000000000e+00
	1.600000000000000e-01
	4.999971704932544e+00
	4.999985852341267e+00
	4.999985852466269e+00
	4.999999999645144e+00
	4.999999999697565e+00
	4.999999999822572e+00
	5.000000000000000e+00
	5.000000000000000e+00
	5.000000000000000e+00
	-1.131821892888518e-06
	1.871732772241548e-02
	0.000000000000000e+00
	4.840000000000000e+00
	1.740445016025660e-03
	1.697575088485337e-02
	-1.871619590087903e-02

 17	1.700000000000000e-01
	5.000000000000000e+00
	0.000000000000000e+00
	0.000000000000000e+00
	1.700000000000000e-01
	4.999971302066306e+00
	4.999985650908148e+00
	4.999985651033150e+00
	4.999999999611248e+00
	4.999999999680616e+00
	4.999999999805624e+00
	5.000000000000000e+00
	5.000000000000000e+00
	5.000000000000000e+00
	-1.147937898265949e-06
	1.865623377405966e-02
	0.000000000000000e+00
	4.830000000000000e+00
	1.732584754904565e-03
	1.692250108135340e-02
	-1.865508583625797e-02

 18	1.800000000000000e-01
	5.000000000000000e+00
	0.000000000000000e+00
	0.000000000000000e+00
	1.800000000000000e-01
	4.999970894836913e+00
	4.999985447293451e+00
	4.999985447418454e+00
	4.999999999573854e+00
	4.999999999661918e+00
	4.999999999786927e+00
	5.000000000000000e+00
	5.000000000000000e+00
	5.000000000000000e+00
	-1.164228569702774e-06
	1.859517069260384e-02
	0.000000000000000e+00
	4.820000000000000e+00
	1.724738548318783e-03
	1.686926791603582e-02
	-1.859400646435461e-02

 19	1.900000000000000e-01
	5.000000000000000e+00
	0.000000000000000e+00
	0.000000000000000e+00
	1.900000000000000e-01
	4.999970483217398e+00
	4.999985241483692e+00
	4.999985241608696e+00
	4.999999999532651e+00
	4.999999999641318e+00
	4.999999999766326e+00
	5.000000000000000e+00
	5.000000000000000e+00
	5.000000000000000e+00
	-1.180694998437204e-06
	1.853413853908060e-02
	0.000000000000000e+00
	4.810000000000000e+00
	1.716906413207653e-03
	1.681605143085108e-02
	-1.853295784405873e-02

 20	2.000000000000000e-01
	5.000000000000000e+00
	0.000000000000000e+00
	0.000000000000000e+00
	2.000000000000000e-01
	4.999970067180906e+00
	4.999985033465446e+00
	4.999985033590450e+00
	4.999999999487303e+00
	4.999999999618644e+00
	4.999999999743651e+00
	5.000000000000000e+00
	5.000000000000000e+00
	5.000000000000000e+00
	-1.197338272085346e-06
	1.847313737491650e-02
	0.000000000000000e+00
	4.800000000000000e+00
	1.709088367192635e-03
	1.676285166956859e-02
	-1.847194003676123e-02

 21	2.100000000000000e-01
	5.000000000000000e+00
	0.000000000000000e+00
	0.000000000000000e+00
	2.100000000000000e-01
	4.999969646700702e+00
	4.999984823225345e+00
	4.999984823350348e+00
	4.999999999437448e+00
	4.999999999593716e+00
	4.999999999718724e+00
	5.000000000000000e+00
	5.000000000000000e+00
	5.000000000000000e+00
	-1.214159474433041e-06
	1.841216726194035e-02
	0.000000000000000e+00
	4.790000000000000e+00
	1.701284427326755e-03
	1.670966867538937e-02
	-1.841095310271612e-02

 22	2.200000000000001e-01
	5.000000000000000e+00
	0.000000000000000e+00
	0.000000000000000e+00
	2.200000000000001e-01
	4.999969221750185e+00
	4.999984610750086e+00
	4.999984610875090e+00
	4.999999999382696e+00
	4.999999999566340e+00
	4.999999999691348e+00
	5.000000000000000e+00
	5.000000000000000e+00
	5.000000000000000e+00
	-1.231159685088912e-06
	1.835122826239093e-02
	0.000000000000000e+00
	4.780000000000000e+00
	1.693494611004098e-03
	1.665650249219652e-02
	-1.834999710320062e-02

 23	2.300000000000001e-01
	5.000000000000000e+00
	0.000000000000000e+00
	0.000000000000000e+00
	2.300000000000001e-01
	4.999968792302874e+00
	4.999984396026431e+00
	4.999984396151435e+00
	4.999999999322636e+00
	4.999999999536310e+00
	4.999999999661318e+00
	5.000000000000000e+00
	5.000000000000000e+00
	5.000000000000000e+00
	-1.248339979942337e-06
	1.829032043892535e-02
	0.000000000000000e+00
	4.770000000000000e+00
	1.685718934709257e-03
	1.660335316432793e-02
	-1.828907209903718e-02

 24	2.400000000000001e-01
	5.000000000000000e+00
	0.000000000000000e+00
	0.000000000000000e+00
	2.400000000000001e-01
	4.999968358332436e+00
	4.999984179041212e+00
	4.999984179166216e+00
	4.999999999256813e+00
	4.999999999503398e+00
	4.999999999628407e+00
	5.000000000000000e+00
	5.000000000000000e+00
	5.000000000000000e+00
	-1.265701430344657e-06
	1.822944385462711e-02
	0.000000000000000e+00
	4.760000000000000e+00
	1.677957416973186e-03
	1.655022073657619e-02
	-1.822817815354938e-02

 25	2.500000000000001e-01
	5.000000000000000e+00
	0.000000000000000e+00
	0.000000000000000e+00
	2.500000000000001e-01
	4.999967919812675e+00
	4.999983959781331e+00
	4.999983959906334e+00
	4.999999999184757e+00
	4.999999999467370e+00
	4.999999999592379e+00
	5.000000000000000e+00
	5.000000000000000e+00
	5.000000000000000e+00
	-1.283245103164687e-06
	1.816859857301418e-02
	0.000000000000000e+00
	4.750000000000000e+00
	1.670210073484668e-03
	1.649710525430237e-02
	-1.816731532778704e-02

 26	2.600000000000001e-01
	5.000000000000000e+00
	0.000000000000000e+00
	0.000000000000000e+00
	2.600000000000001e-01
	4.999967476717541e+00
	4.999983738233764e+00
	4.999983738358768e+00
	4.999999999105953e+00
	4.999999999427969e+00
	4.999999999552977e+00
	5.000000000000000e+00
	5.000000000000000e+00
	5.000000000000000e+00
	-1.300972060677696e-06
	1.810778465804736e-02
	0.000000000000000e+00
	4.740000000000000e+00
	1.662476923002032e-03
	1.644400676309488e-02
	-1.810648368609691e-02

 27	2.700000000000001e-01
	5.000000000000000e+00
	0.000000000000000e+00
	0.000000000000000e+00
	2.700000000000001e-01
	4.999967029021140e+00
	4.999983514385564e+00
	4.999983514510568e+00
	4.999999999019861e+00
	4.999999999384922e+00
	4.999999999509931e+00
	5.000000000000000e+00
	5.000000000000000e+00
	5.000000000000000e+00
	-1.318883360273970e-06
	1.804700217413847e-02
	0.000000000000000e+00
	4.730000000000000e+00
	1.654757981327748e-03
	1.639092530922426e-02
	-1.804568329055201e-02

 28	2.800000000000001e-01
	5.000000000000000e+00
	0.000000000000000e+00
	0.000000000000000e+00
	2.800000000000001e-01
	4.999966576697734e+00
	4.999983288223861e+00
	4.999983288348864e+00
	4.999999998925899e+00
	4.999999999337941e+00
	4.999999999462950e+00
	5.000000000000000e+00
	5.000000000000000e+00
	5.000000000000000e+00
	-1.336980055069437e-06
	1.798625118615867e-02
	0.000000000000000e+00
	4.720000000000000e+00
	1.647053266651710e-03
	1.633786093952949e-02
	-1.798491420618120e-02

 29	2.900000000000001e-01
	5.000000000000000e+00
	0.000000000000000e+00
	0.000000000000000e+00
	2.900000000000001e-01
	4.999966119721750e+00
	4.999983059735869e+00
	4.999983059860872e+00
	4.999999998823445e+00
	4.999999999286715e+00
	4.999999999411723e+00
	5.000000000000000e+00
	5.000000000000000e+00
	5.000000000000000e+00
	-1.355263192504008e-06
	1.792553175944671e-02
	0.000000000000000e+00
	4.710000000000000e+00
	1.639362795799570e-03
	1.628481370062218e-02
	-1.792417649642175e-02

 30	3.000000000000001e-01
	5.000000000000000e+00
	0.000000000000000e+00
	0.000000000000000e+00
	3.000000000000001e-01
	4.999965658067784e+00
	4.999982828908886e+00
	4.999982829033890e+00
	4.999999998711843e+00
	4.999999999230914e+00
	4.999999999355921e+00
	5.000000000000000e+00
	5.000000000000000e+00
	5.000000000000000e+00
	-1.373733815354661e-06
	1.786484395981752e-02
	0.000000000000000e+00
	4.700000000000000e+00
	1.631686585938041e-03
	1.623178364036448e-02
	-1.786347022630252e-02

 31	3.100000000000001e-01
	5.000000000000000e+00
	0.000000000000000e+00
	0.000000000000000e+00
	3.100000000000001e-01
	4.999965191710605e+00
	4.999982595730296e+00
	4.999982595855300e+00
	4.999999998590392e+00
	4.999999999170187e+00
	4.999999999295196e+00
	5.000000000000000e+00
	5.000000000000000e+00
	5.000000000000000e+00
	-1.392392960486433e-06
	1.780418785357054e-02
	0.000000000000000e+00
	4.690000000000000e+00
	1.624024654347522e-03
	1.617877080627750e-02
	-1.780279546062502e-02

 32	3.200000000000001e-01
	5.000000000000000e+00
	0.000000000000000e+00
	0.000000000000000e+00
	3.200000000000001e-01
	4.999964720625167e+00
	4.999982360187577e+00
	4.999982360312581e+00
	4.999999998458339e+00
	4.999999999104162e+00
	4.999999999229169e+00
	5.000000000000000e+00
	5.000000000000000e+00
	5.000000000000000e+00
	-1.411241660156937e-06
	1.774356350749818e-02
	0.000000000000000e+00
	4.680000000000000e+00
	1.616377018081039e-03
	1.612577524792869e-02
	-1.774215226600973e-02

 33	3.300000000000001e-01
	5.000000000000000e+00
	0.000000000000000e+00
	0.000000000000000e+00
	3.300000000000001e-01
	4.999964244786604e+00
	4.999982122268296e+00
	4.999982122393299e+00
	4.999999998314901e+00
	4.999999999032442e+00
	4.999999999157450e+00
	5.000000000000000e+00
	5.000000000000000e+00
	5.000000000000000e+00
	-1.430280940240003e-06
	1.768297098889451e-02
	0.000000000000000e+00
	4.670000000000000e+00
	1.608743694532677e-03
	1.607279701363495e-02
	-1.768154070816763e-02

 34	3.400000000000001e-01
	5.000000000000000e+00
	0.000000000000000e+00
	0.000000000000000e+00
	3.400000000000001e-01
	4.999963764170249e+00
	4.999981881960119e+00
	4.999981882085122e+00
	4.999999998159231e+00
	4.999999998954607e+00
	4.999999999079615e+00
	5.000000000000000e+00
	5.000000000000000e+00
	5.000000000000000e+00
	-1.449511821238758e-06
	1.762241036556378e-02
	0.000000000000000e+00
	4.660000000000000e+00
	1.601124700641776e-03
	1.601983615307745e-02
	-1.762096085371923e-02

 35	3.500000000000001e-01
	5.000000000000000e+00
	0.000000000000000e+00
	0.000000000000000e+00
	3.500000000000001e-01
	4.999963278751622e+00
	4.999981639250805e+00
	4.999981639375809e+00
	4.999999997990443e+00
	4.999999998870214e+00
	4.999999998995222e+00
	5.000000000000000e+00
	5.000000000000000e+00
	5.000000000000000e+00
	-1.468935317786024e-06
	1.756188170582917e-02
	0.000000000000000e+00
	4.649999999999999e+00
	1.593520054257169e-03
	1.596689271650575e-02
	-1.756041277076292e-02

 36	3.600000000000002e-01
	5.000000000000000e+00
	0.000000000000000e+00
	0.000000000000000e+00
	3.600000000000002e-01
	4.999962788506462e+00
	4.999981394128225e+00
	4.999981394253229e+00
	4.999999997807593e+00
	4.999999998778788e+00
	4.999999998903797e+00
	5.000000000000000e+00
	5.000000000000000e+00
	5.000000000000000e+00
	-1.488552438227986e-06
	1.750138507854153e-02
	0.000000000000000e+00
	4.640000000000000e+00
	1.585929772204508e-03
	1.591396675416945e-02
	-1.749989652637396e-02

 37	3.700000000000002e-01
	5.000000000000000e+00
	0.000000000000000e+00
	0.000000000000000e+00
	3.700000000000002e-01
	4.999962293410704e+00
	4.999981146580346e+00
	4.999981146705350e+00
	4.999999997609676e+00
	4.999999998679829e+00
	4.999999998804838e+00
	5.000000000000000e+00
	5.000000000000000e+00
	5.000000000000000e+00
	-1.508364185165423e-06
	1.744092055308805e-02
	0.000000000000000e+00
	4.630000000000000e+00
	1.578353871536819e-03
	1.586105831734130e-02
	-1.743941218887812e-02

 38	3.800000000000002e-01
	5.000000000000000e+00
	0.000000000000000e+00
	0.000000000000000e+00
	3.800000000000002e-01
	4.999961793440507e+00
	4.999980896595248e+00
	4.999980896720251e+00
	4.999999997395641e+00
	4.999999998572813e+00
	4.999999998697820e+00
	5.000000000000000e+00
	5.000000000000000e+00
	5.000000000000000e+00
	-1.528371554440633e-06
	1.738048819940139e-02
	0.000000000000000e+00
	4.620000000000000e+00
	1.570792369989249e-03
	1.580816745774882e-02
	-1.737895982773807e-02

 39	3.900000000000002e-01
	5.000000000000000e+00
	0.000000000000000e+00
	0.000000000000000e+00
	3.900000000000002e-01
	4.999961288572248e+00
	4.999980644161118e+00
	4.999980644286122e+00
	4.999999997164370e+00
	4.999999998457177e+00
	4.999999998582186e+00
	5.000000000000000e+00
	5.000000000000000e+00
	5.000000000000000e+00
	-1.548575535595398e-06
	1.732008808796839e-02
	0.000000000000000e+00
	4.609999999999999e+00
	1.563245284728509e-03
	1.575529422780164e-02
	-1.731853951253015e-02

 40	4.000000000000002e-01
	5.000000000000000e+00
	0.000000000000000e+00
	0.000000000000000e+00
	4.000000000000002e-01
	4.999960778782530e+00
	4.999980389266259e+00
	4.999980389391263e+00
	4.999999996914684e+00
	4.999999998332334e+00
	4.999999998457342e+00
	5.000000000000000e+00
	5.000000000000000e+00
	5.000000000000000e+00
	-1.568977111898739e-06
	1.725972028983926e-02
	0.000000000000000e+00
	4.600000000000000e+00
	1.555712633148687e-03
	1.570243867990939e-02
	-1.725815131305808e-02

 41	4.100000000000002e-01
	5.000000000000000e+00
	0.000000000000000e+00
	0.000000000000000e+00
	4.100000000000002e-01
	4.999960264048195e+00
	4.999980131899092e+00
	4.999980132024096e+00
	4.999999996645339e+00
	4.999999998197662e+00
	4.999999998322670e+00
	5.000000000000000e+00
	5.000000000000000e+00
	5.000000000000000e+00
	-1.589577258986896e-06
	1.719938487663653e-02
	0.000000000000000e+00
	4.590000000000000e+00
	1.548194432189121e-03
	1.564960086739120e-02
	-1.719779529958032e-02

 42	4.200000000000002e-01
	5.000000000000000e+00
	0.000000000000000e+00
	0.000000000000000e+00
	4.200000000000002e-01
	4.999959744346321e+00
	4.999979872048154e+00
	4.999979872173158e+00
	4.999999996355023e+00
	4.999999998052504e+00
	4.999999998177512e+00
	5.000000000000000e+00
	5.000000000000000e+00
	5.000000000000000e+00
	-1.610376946639680e-06
	1.713908192056431e-02
	0.000000000000000e+00
	4.580000000000000e+00
	1.540690699698644e-03
	1.559678084402094e-02
	-1.713747154371958e-02

 43	4.300000000000002e-01
	5.000000000000000e+00
	0.000000000000000e+00
	0.000000000000000e+00
	4.300000000000002e-01
	4.999959219654236e+00
	4.999979609702113e+00
	4.999979609827117e+00
	4.999999996042355e+00
	4.999999997896170e+00
	4.999999998021178e+00
	5.000000000000000e+00
	5.000000000000000e+00
	5.000000000000000e+00
	-1.631377136768197e-06
	1.707881149441745e-02
	0.000000000000000e+00
	4.569999999999999e+00
	1.533201452957655e-03
	1.554397866459567e-02
	-1.707718011755333e-02

 44	4.400000000000002e-01
	5.000000000000000e+00
	0.000000000000000e+00
	0.000000000000000e+00
	4.400000000000002e-01
	4.999958689949516e+00
	4.999979344849752e+00
	4.999979344974756e+00
	4.999999995705881e+00
	4.999999997727932e+00
	4.999999997852941e+00
	5.000000000000000e+00
	5.000000000000000e+00
	5.000000000000000e+00
	-1.652578784580583e-06
	1.701857367159101e-02
	0.000000000000000e+00
	4.560000000000000e+00
	1.525726709246555e-03
	1.549119438379876e-02
	-1.701692109304531e-02

 45	4.500000000000002e-01
	5.000000000000000e+00
	0.000000000000000e+00
	0.000000000000000e+00
	4.500000000000002e-01
	4.999958155210000e+00
	4.999979077479994e+00
	4.999979077604998e+00
	4.999999995344069e+00
	4.999999997547026e+00
	4.999999997672035e+00
	5.000000000000000e+00
	5.000000000000000e+00
	5.000000000000000e+00
	-1.673982837679944e-06
	1.695836852608955e-02
	0.000000000000000e+00
	4.550000000000000e+00
	1.518266485959430e-03
	1.543842805710938e-02
	-1.695669454306881e-02

 46	4.600000000000002e-01
	5.000000000000000e+00
	0.000000000000000e+00
	0.000000000000000e+00
	4.600000000000002e-01
	4.999957615413792e+00
	4.999978807581890e+00
	4.999978807706894e+00
	4.999999994955315e+00
	4.999999997352649e+00
	4.999999997477658e+00
	5.000000000000000e+00
	5.000000000000000e+00
	5.000000000000000e+00
	-1.695590236119870e-06
	1.689819613253650e-02
	0.000000000000000e+00
	4.540000000000000e+00
	1.510820800831425e-03
	1.538567974137095e-02
	-1.689650054220238e-02

 47	4.700000000000003e-01
	5.000000000000000e+00
	0.000000000000000e+00
	0.000000000000000e+00
	4.700000000000003e-01
	4.999957070539267e+00
	4.999978535144628e+00
	4.999978535269632e+00
	4.999999994537929e+00
	4.999999997143956e+00
	4.999999997268964e+00
	5.000000000000000e+00
	5.000000000000000e+00
	5.000000000000000e+00
	-1.717401912570971e-06
	1.683805656618403e-02
	0.000000000000000e+00
	4.529999999999999e+00
	1.503389671370314e-03
	1.533294949285846e-02
	-1.683633916422878e-02

 48	4.800000000000003e-01
	5.000000000000000e+00
	0.000000000000000e+00
	0.000000000000000e+00
	4.800000000000003e-01
	4.999956520565078e+00
	4.999978260157533e+00
	4.999978260282537e+00
	4.999999994090138e+00
	4.999999996920060e+00
	4.999999997045069e+00
	5.000000000000000e+00
	5.000000000000000e+00
	5.000000000000000e+00
	-1.739418791821268e-06
	1.677794990292248e-02
	0.000000000000000e+00
	4.520000000000000e+00
	1.495973114970184e-03
	1.528023736932482e-02
	-1.677621048429501e-02

 49	4.900000000000003e-01
	5.000000000000000e+00
	0.000000000000000e+00
	0.000000000000000e+00
	4.900000000000003e-01
	4.999955965470168e+00
	4.999977982610078e+00
	4.999977982735082e+00
	4.999999993610079e+00
	4.999999996680031e+00
	4.999999996805039e+00
	5.000000000000000e+00
	5.000000000000000e+00
	5.000000000000000e+00
	-1.761641790554158e-06
	1.671787621929016e-02
	0.000000000000000e+00
	4.510000000000000e+00
	1.488571149252493e-03
	1.522754342852295e-02
	-1.671611457777544e-02

 50	5.000000000000002e-01
	5.000000000000000e+00
	0.000000000000000e+00
	0.000000000000000e+00
	5.000000000000002e-01
	4.999955405233766e+00
	4.999977702491877e+00
	4.999977702616881e+00
	4.999999993095810e+00
	4.999999996422897e+00
	4.999999996547905e+00
	5.000000000000000e+00
	5.000000000000000e+00
	5.000000000000000e+00
	-1.784071817334532e-06
	1.665783559248332e-02
	0.000000000000000e+00
	4.500000000000000e+00
	1.481183791952390e-03
	1.517486772900156e-02
	-1.665605152095395e-02

 51	5.100000000000002e-01
	5.000000000000000e+00
	0.000000000000000e+00
	0.000000000000000e+00
	5.100000000000002e-01
	4.999954839835402e+00
	4.999977419792695e+00
	4.999977419917700e+00
	4.999999992545287e+00
	4.999999996147634e+00
	4.999999996272643e+00
	5.000000000000000e+00
	5.000000000000000e+00
	5.000000000000000e+00
	-1.806709772830817e-06
	1.659782810036583e-02
	0.000000000000000e+00
	4.490000000000000e+00
	1.473811060236585e-03
	1.512221033033256e-02
	-1.659602139056915e-02

 52	5.200000000000002e-01
	5.000000000000000e+00
	0.000000000000000e+00
	0.000000000000000e+00
	5.200000000000002e-01
	4.999954269254915e+00
	4.999977134502451e+00
	4.999977134627456e+00
	4.999999991956372e+00
	4.999999995853178e+00
	4.999999995978186e+00
	5.000000000000000e+00
	5.000000000000000e+00
	5.000000000000000e+00
	-1.829556548982314e-06
	1.653785382147941e-02
	0.000000000000000e+00
	4.480000000000000e+00
	1.466452972522347e-03
	1.506957129288367e-02
	-1.653602426540601e-02

 53	5.300000000000002e-01
	5.000000000000000e+00
	0.000000000000000e+00
	0.000000000000000e+00
	5.300000000000002e-01
	4.999953693472452e+00
	4.999976846611220e+00
	4.999976846736224e+00
	4.999999991326834e+00
	4.999999995538408e+00
	4.999999995663416e+00
	5.000000000000000e+00
	5.000000000000000e+00
	5.000000000000000e+00
	-1.852613028943684e-06
	1.647791283505380e-02
	0.000000000000000e+00
	4.470000000000000e+00
	1.459109545976389e-03
	1.501695067622677e-02
	-1.647606022220316e-02

 54	5.400000000000003e-01
	5.000000000000000e+00
	0.000000000000000e+00
	0.000000000000000e+00
	5.400000000000003e-01
	4.999953112468480e+00
	4.999976556109234e+00
	4.999976556234238e+00
	4.999999990654335e+00
	4.999999995202160e+00
	4.999999995327168e+00
	5.000000000000000e+00
	5.000000000000000e+00
	5.000000000000000e+00
	-1.875880087820470e-06
	1.641800522101681e-02
	0.000000000000000e+00
	4.460000000000000e+00
	1.451780798561231e-03
	1.496434854277595e-02
	-1.641612934133718e-02

 55	5.500000000000003e-01
	5.000000000000000e+00
	0.000000000000000e+00
	0.000000000000000e+00
	5.500000000000003e-01
	4.999952526223796e+00
	4.999976262986892e+00
	4.999976263111897e+00
	4.999999989936439e+00
	4.999999994843211e+00
	4.999999994968220e+00
	5.000000000000000e+00
	5.000000000000000e+00
	5.000000000000000e+00
	-1.899358591073153e-06
	1.635813106000476e-02
	0.000000000000000e+00
	4.449999999999999e+00
	1.444466748125706e-03
	1.491176495380842e-02
	-1.635623170193412e-02

 56	5.600000000000003e-01
	5.000000000000000e+00
	0.000000000000000e+00
	0.000000000000000e+00
	5.600000000000003e-01
	4.999951934719526e+00
	4.999975967234757e+00
	4.999975967359761e+00
	4.999999989170598e+00
	4.999999994460291e+00
	4.999999994585299e+00
	5.000000000000000e+00
	5.000000000000000e+00
	5.000000000000000e+00
	-1.923049395460841e-06
	1.629829043337295e-02
	0.000000000000000e+00
	4.440000000000000e+00
	1.437167412291274e-03
	1.485919997185192e-02
	-1.629636738414320e-02

 57	5.700000000000003e-01
	5.000000000000000e+00
	0.000000000000000e+00
	0.000000000000000e+00
	5.700000000000003e-01
	4.999951337937137e+00
	4.999975668843563e+00
	4.999975668968567e+00
	4.999999988354153e+00
	4.999999994052068e+00
	4.999999994177077e+00
	5.000000000000000e+00
	5.000000000000000e+00
	5.000000000000000e+00
	-1.946953348833103e-06
	1.623848342320612e-02
	0.000000000000000e+00
	4.430000000000000e+00
	1.429882809020455e-03
	1.480665366102585e-02
	-1.623653647004630e-02

 58	5.800000000000003e-01
	5.000000000000000e+00
	0.000000000000000e+00
	0.000000000000000e+00
	5.800000000000003e-01
	4.999950735858449e+00
	4.999975367804218e+00
	4.999975367929223e+00
	4.999999987484337e+00
	4.999999993617160e+00
	4.999999993742168e+00
	5.000000000000000e+00
	5.000000000000000e+00
	5.000000000000000e+00
	-1.971071289005866e-06
	1.617871011232920e-02
	0.000000000000000e+00
	4.420000000000000e+00
	1.422612956957892e-03
	1.475412608431270e-02
	-1.617673904127059e-02

 59	5.900000000000003e-01
	5.000000000000000e+00
	0.000000000000000e+00
	0.000000000000000e+00
	5.900000000000003e-01
	4.999950128465630e+00
	4.999975064107810e+00
	4.999975064232814e+00
	4.999999986558265e+00
	4.999999993154124e+00
	4.999999993279133e+00
	5.000000000000000e+00
	5.000000000000000e+00
	5.000000000000000e+00
	-1.995404044538573e-06
	1.611897058431791e-02
	0.000000000000000e+00
	4.410000000000000e+00